+ 0.1 0 1 tcp 40 ------- 1 0.0 5.0 0 0
- 0.1 0 1 tcp 40 ------- 1 0.0 5.0 0 0
r 0.111067 0 1 tcp 40 ------- 1 0.0 5.0 0 0
+ 0.111067 1 4 tcp 40 ------- 1 0.0 5.0 0 0
- 0.111067 1 4 tcp 40 ------- 1 0.0 5.0 0 0
r 0.122133 1 4 tcp 40 ------- 1 0.0 5.0 0 0
+ 0.122133 4 5 tcp 40 ------- 1 0.0 5.0 0 0
- 0.122133 4 5 tcp 40 ------- 1 0.0 5.0 0 0
r 0.132773 4 5 tcp 40 ------- 1 0.0 5.0 0 0
+ 0.232773 5 4 ack 40 ------- 1 5.0 0.0 0 1
- 0.232773 5 4 ack 40 ------- 1 5.0 0.0 0 1
r 0.243413 5 4 ack 40 ------- 1 5.0 0.0 0 1
+ 0.243413 4 1 ack 40 ------- 1 5.0 0.0 0 1
- 0.243413 4 1 ack 40 ------- 1 5.0 0.0 0 1
r 0.25448 4 1 ack 40 ------- 1 5.0 0.0 0 1
+ 0.25448 1 0 ack 40 ------- 1 5.0 0.0 0 1
- 0.25448 1 0 ack 40 ------- 1 5.0 0.0 0 1
r 0.265547 1 0 ack 40 ------- 1 5.0 0.0 0 1
+ 0.265547 0 1 tcp 1040 ------- 1 0.0 5.0 1 2
- 0.265547 0 1 tcp 1040 ------- 1 0.0 5.0 1 2
+ 0.265547 0 1 tcp 1040 ------- 1 0.0 5.0 2 3
- 0.29328 0 1 tcp 1040 ------- 1 0.0 5.0 2 3
r 0.30328 0 1 tcp 1040 ------- 1 0.0 5.0 1 2
+ 0.30328 1 4 tcp 1040 ------- 1 0.0 5.0 1 2
- 0.30328 1 4 tcp 1040 ------- 1 0.0 5.0 1 2
r 0.331013 0 1 tcp 1040 ------- 1 0.0 5.0 2 3
+ 0.331013 1 4 tcp 1040 ------- 1 0.0 5.0 2 3
- 0.331013 1 4 tcp 1040 ------- 1 0.0 5.0 2 3
r 0.341013 1 4 tcp 1040 ------- 1 0.0 5.0 1 2
+ 0.341013 4 5 tcp 1040 ------- 1 0.0 5.0 1 2
- 0.341013 4 5 tcp 1040 ------- 1 0.0 5.0 1 2
r 0.367653 4 5 tcp 1040 ------- 1 0.0 5.0 1 2
r 0.368747 1 4 tcp 1040 ------- 1 0.0 5.0 2 3
+ 0.368747 4 5 tcp 1040 ------- 1 0.0 5.0 2 3
- 0.368747 4 5 tcp 1040 ------- 1 0.0 5.0 2 3
r 0.395387 4 5 tcp 1040 ------- 1 0.0 5.0 2 3
+ 0.395387 5 4 ack 40 ------- 1 5.0 0.0 2 4
- 0.395387 5 4 ack 40 ------- 1 5.0 0.0 2 4
r 0.406027 5 4 ack 40 ------- 1 5.0 0.0 2 4
+ 0.406027 4 1 ack 40 ------- 1 5.0 0.0 2 4
- 0.406027 4 1 ack 40 ------- 1 5.0 0.0 2 4
r 0.417093 4 1 ack 40 ------- 1 5.0 0.0 2 4
+ 0.417093 1 0 ack 40 ------- 1 5.0 0.0 2 4
- 0.417093 1 0 ack 40 ------- 1 5.0 0.0 2 4
r 0.42816 1 0 ack 40 ------- 1 5.0 0.0 2 4
+ 0.42816 0 1 tcp 1040 ------- 1 0.0 5.0 3 5
- 0.42816 0 1 tcp 1040 ------- 1 0.0 5.0 3 5
+ 0.42816 0 1 tcp 1040 ------- 1 0.0 5.0 4 6
+ 0.42816 0 1 tcp 1040 ------- 1 0.0 5.0 5 7
- 0.455893 0 1 tcp 1040 ------- 1 0.0 5.0 4 6
r 0.465893 0 1 tcp 1040 ------- 1 0.0 5.0 3 5
+ 0.465893 1 4 tcp 1040 ------- 1 0.0 5.0 3 5
- 0.465893 1 4 tcp 1040 ------- 1 0.0 5.0 3 5
- 0.483627 0 1 tcp 1040 ------- 1 0.0 5.0 5 7
r 0.493627 0 1 tcp 1040 ------- 1 0.0 5.0 4 6
+ 0.493627 1 4 tcp 1040 ------- 1 0.0 5.0 4 6
- 0.493627 1 4 tcp 1040 ------- 1 0.0 5.0 4 6
r 0.503627 1 4 tcp 1040 ------- 1 0.0 5.0 3 5
+ 0.503627 4 5 tcp 1040 ------- 1 0.0 5.0 3 5
- 0.503627 4 5 tcp 1040 ------- 1 0.0 5.0 3 5
r 0.52136 0 1 tcp 1040 ------- 1 0.0 5.0 5 7
+ 0.52136 1 4 tcp 1040 ------- 1 0.0 5.0 5 7
- 0.52136 1 4 tcp 1040 ------- 1 0.0 5.0 5 7
r 0.530267 4 5 tcp 1040 ------- 1 0.0 5.0 3 5
r 0.53136 1 4 tcp 1040 ------- 1 0.0 5.0 4 6
+ 0.53136 4 5 tcp 1040 ------- 1 0.0 5.0 4 6
- 0.53136 4 5 tcp 1040 ------- 1 0.0 5.0 4 6
r 0.558 4 5 tcp 1040 ------- 1 0.0 5.0 4 6
+ 0.558 5 4 ack 40 ------- 1 5.0 0.0 4 8
- 0.558 5 4 ack 40 ------- 1 5.0 0.0 4 8
r 0.559093 1 4 tcp 1040 ------- 1 0.0 5.0 5 7
+ 0.559093 4 5 tcp 1040 ------- 1 0.0 5.0 5 7
- 0.559093 4 5 tcp 1040 ------- 1 0.0 5.0 5 7
r 0.56864 5 4 ack 40 ------- 1 5.0 0.0 4 8
+ 0.56864 4 1 ack 40 ------- 1 5.0 0.0 4 8
- 0.56864 4 1 ack 40 ------- 1 5.0 0.0 4 8
r 0.579707 4 1 ack 40 ------- 1 5.0 0.0 4 8
+ 0.579707 1 0 ack 40 ------- 1 5.0 0.0 4 8
- 0.579707 1 0 ack 40 ------- 1 5.0 0.0 4 8
r 0.585733 4 5 tcp 1040 ------- 1 0.0 5.0 5 7
r 0.590773 1 0 ack 40 ------- 1 5.0 0.0 4 8
+ 0.590773 0 1 tcp 1040 ------- 1 0.0 5.0 6 9
- 0.590773 0 1 tcp 1040 ------- 1 0.0 5.0 6 9
+ 0.590773 0 1 tcp 1040 ------- 1 0.0 5.0 7 10
+ 0.590773 0 1 tcp 1040 ------- 1 0.0 5.0 8 11
- 0.618507 0 1 tcp 1040 ------- 1 0.0 5.0 7 10
r 0.628507 0 1 tcp 1040 ------- 1 0.0 5.0 6 9
+ 0.628507 1 4 tcp 1040 ------- 1 0.0 5.0 6 9
- 0.628507 1 4 tcp 1040 ------- 1 0.0 5.0 6 9
- 0.64624 0 1 tcp 1040 ------- 1 0.0 5.0 8 11
r 0.65624 0 1 tcp 1040 ------- 1 0.0 5.0 7 10
+ 0.65624 1 4 tcp 1040 ------- 1 0.0 5.0 7 10
- 0.65624 1 4 tcp 1040 ------- 1 0.0 5.0 7 10
r 0.66624 1 4 tcp 1040 ------- 1 0.0 5.0 6 9
+ 0.66624 4 5 tcp 1040 ------- 1 0.0 5.0 6 9
- 0.66624 4 5 tcp 1040 ------- 1 0.0 5.0 6 9
r 0.683973 0 1 tcp 1040 ------- 1 0.0 5.0 8 11
+ 0.683973 1 4 tcp 1040 ------- 1 0.0 5.0 8 11
- 0.683973 1 4 tcp 1040 ------- 1 0.0 5.0 8 11
+ 0.685733 5 4 ack 40 ------- 1 5.0 0.0 5 12
- 0.685733 5 4 ack 40 ------- 1 5.0 0.0 5 12
r 0.69288 4 5 tcp 1040 ------- 1 0.0 5.0 6 9
r 0.693973 1 4 tcp 1040 ------- 1 0.0 5.0 7 10
+ 0.693973 4 5 tcp 1040 ------- 1 0.0 5.0 7 10
- 0.693973 4 5 tcp 1040 ------- 1 0.0 5.0 7 10
r 0.696373 5 4 ack 40 ------- 1 5.0 0.0 5 12
+ 0.696373 4 1 ack 40 ------- 1 5.0 0.0 5 12
- 0.696373 4 1 ack 40 ------- 1 5.0 0.0 5 12
r 0.70744 4 1 ack 40 ------- 1 5.0 0.0 5 12
+ 0.70744 1 0 ack 40 ------- 1 5.0 0.0 5 12
- 0.70744 1 0 ack 40 ------- 1 5.0 0.0 5 12
r 0.718507 1 0 ack 40 ------- 1 5.0 0.0 5 12
+ 0.718507 0 1 tcp 1040 ------- 1 0.0 5.0 9 13
- 0.718507 0 1 tcp 1040 ------- 1 0.0 5.0 9 13
+ 0.718507 0 1 tcp 1040 ------- 1 0.0 5.0 10 14
r 0.720613 4 5 tcp 1040 ------- 1 0.0 5.0 7 10
+ 0.720613 5 4 ack 40 ------- 1 5.0 0.0 7 15
- 0.720613 5 4 ack 40 ------- 1 5.0 0.0 7 15
r 0.721707 1 4 tcp 1040 ------- 1 0.0 5.0 8 11
+ 0.721707 4 5 tcp 1040 ------- 1 0.0 5.0 8 11
- 0.721707 4 5 tcp 1040 ------- 1 0.0 5.0 8 11
r 0.731253 5 4 ack 40 ------- 1 5.0 0.0 7 15
+ 0.731253 4 1 ack 40 ------- 1 5.0 0.0 7 15
- 0.731253 4 1 ack 40 ------- 1 5.0 0.0 7 15
r 0.74232 4 1 ack 40 ------- 1 5.0 0.0 7 15
+ 0.74232 1 0 ack 40 ------- 1 5.0 0.0 7 15
- 0.74232 1 0 ack 40 ------- 1 5.0 0.0 7 15
- 0.74624 0 1 tcp 1040 ------- 1 0.0 5.0 10 14
r 0.748347 4 5 tcp 1040 ------- 1 0.0 5.0 8 11
r 0.753387 1 0 ack 40 ------- 1 5.0 0.0 7 15
+ 0.753387 0 1 tcp 1040 ------- 1 0.0 5.0 11 16
+ 0.753387 0 1 tcp 1040 ------- 1 0.0 5.0 12 17
+ 0.753387 0 1 tcp 1040 ------- 1 0.0 5.0 13 18
r 0.75624 0 1 tcp 1040 ------- 1 0.0 5.0 9 13
+ 0.75624 1 4 tcp 1040 ------- 1 0.0 5.0 9 13
- 0.75624 1 4 tcp 1040 ------- 1 0.0 5.0 9 13
- 0.773973 0 1 tcp 1040 ------- 1 0.0 5.0 11 16
r 0.783973 0 1 tcp 1040 ------- 1 0.0 5.0 10 14
+ 0.783973 1 4 tcp 1040 ------- 1 0.0 5.0 10 14
- 0.783973 1 4 tcp 1040 ------- 1 0.0 5.0 10 14
r 0.793973 1 4 tcp 1040 ------- 1 0.0 5.0 9 13
+ 0.793973 4 5 tcp 1040 ------- 1 0.0 5.0 9 13
- 0.793973 4 5 tcp 1040 ------- 1 0.0 5.0 9 13
- 0.801707 0 1 tcp 1040 ------- 1 0.0 5.0 12 17
r 0.811707 0 1 tcp 1040 ------- 1 0.0 5.0 11 16
+ 0.811707 1 4 tcp 1040 ------- 1 0.0 5.0 11 16
- 0.811707 1 4 tcp 1040 ------- 1 0.0 5.0 11 16
r 0.820613 4 5 tcp 1040 ------- 1 0.0 5.0 9 13
+ 0.820613 5 4 ack 40 ------- 1 5.0 0.0 9 19
- 0.820613 5 4 ack 40 ------- 1 5.0 0.0 9 19
r 0.821707 1 4 tcp 1040 ------- 1 0.0 5.0 10 14
+ 0.821707 4 5 tcp 1040 ------- 1 0.0 5.0 10 14
- 0.821707 4 5 tcp 1040 ------- 1 0.0 5.0 10 14
- 0.82944 0 1 tcp 1040 ------- 1 0.0 5.0 13 18
r 0.831253 5 4 ack 40 ------- 1 5.0 0.0 9 19
+ 0.831253 4 1 ack 40 ------- 1 5.0 0.0 9 19
- 0.831253 4 1 ack 40 ------- 1 5.0 0.0 9 19
r 0.83944 0 1 tcp 1040 ------- 1 0.0 5.0 12 17
+ 0.83944 1 4 tcp 1040 ------- 1 0.0 5.0 12 17
- 0.83944 1 4 tcp 1040 ------- 1 0.0 5.0 12 17
r 0.84232 4 1 ack 40 ------- 1 5.0 0.0 9 19
+ 0.84232 1 0 ack 40 ------- 1 5.0 0.0 9 19
- 0.84232 1 0 ack 40 ------- 1 5.0 0.0 9 19
r 0.848347 4 5 tcp 1040 ------- 1 0.0 5.0 10 14
r 0.84944 1 4 tcp 1040 ------- 1 0.0 5.0 11 16
+ 0.84944 4 5 tcp 1040 ------- 1 0.0 5.0 11 16
- 0.84944 4 5 tcp 1040 ------- 1 0.0 5.0 11 16
r 0.853387 1 0 ack 40 ------- 1 5.0 0.0 9 19
+ 0.853387 0 1 tcp 1040 ------- 1 0.0 5.0 14 20
+ 0.853387 0 1 tcp 1040 ------- 1 0.0 5.0 15 21
+ 0.853387 0 1 tcp 1040 ------- 1 0.0 5.0 16 22
- 0.857173 0 1 tcp 1040 ------- 1 0.0 5.0 14 20
r 0.867173 0 1 tcp 1040 ------- 1 0.0 5.0 13 18
+ 0.867173 1 4 tcp 1040 ------- 1 0.0 5.0 13 18
- 0.867173 1 4 tcp 1040 ------- 1 0.0 5.0 13 18
r 0.87608 4 5 tcp 1040 ------- 1 0.0 5.0 11 16
+ 0.87608 5 4 ack 40 ------- 1 5.0 0.0 11 23
- 0.87608 5 4 ack 40 ------- 1 5.0 0.0 11 23
r 0.877173 1 4 tcp 1040 ------- 1 0.0 5.0 12 17
+ 0.877173 4 5 tcp 1040 ------- 1 0.0 5.0 12 17
- 0.877173 4 5 tcp 1040 ------- 1 0.0 5.0 12 17
- 0.884907 0 1 tcp 1040 ------- 1 0.0 5.0 15 21
r 0.88672 5 4 ack 40 ------- 1 5.0 0.0 11 23
+ 0.88672 4 1 ack 40 ------- 1 5.0 0.0 11 23
- 0.88672 4 1 ack 40 ------- 1 5.0 0.0 11 23
r 0.894907 0 1 tcp 1040 ------- 1 0.0 5.0 14 20
+ 0.894907 1 4 tcp 1040 ------- 1 0.0 5.0 14 20
- 0.894907 1 4 tcp 1040 ------- 1 0.0 5.0 14 20
r 0.897787 4 1 ack 40 ------- 1 5.0 0.0 11 23
+ 0.897787 1 0 ack 40 ------- 1 5.0 0.0 11 23
- 0.897787 1 0 ack 40 ------- 1 5.0 0.0 11 23
r 0.903813 4 5 tcp 1040 ------- 1 0.0 5.0 12 17
r 0.904907 1 4 tcp 1040 ------- 1 0.0 5.0 13 18
+ 0.904907 4 5 tcp 1040 ------- 1 0.0 5.0 13 18
- 0.904907 4 5 tcp 1040 ------- 1 0.0 5.0 13 18
r 0.908853 1 0 ack 40 ------- 1 5.0 0.0 11 23
+ 0.908853 0 1 tcp 1040 ------- 1 0.0 5.0 17 24
+ 0.908853 0 1 tcp 1040 ------- 1 0.0 5.0 18 25
+ 0.908853 0 1 tcp 1040 ------- 1 0.0 5.0 19 26
- 0.91264 0 1 tcp 1040 ------- 1 0.0 5.0 16 22
r 0.92264 0 1 tcp 1040 ------- 1 0.0 5.0 15 21
+ 0.92264 1 4 tcp 1040 ------- 1 0.0 5.0 15 21
- 0.92264 1 4 tcp 1040 ------- 1 0.0 5.0 15 21
r 0.931547 4 5 tcp 1040 ------- 1 0.0 5.0 13 18
+ 0.931547 5 4 ack 40 ------- 1 5.0 0.0 13 27
- 0.931547 5 4 ack 40 ------- 1 5.0 0.0 13 27
r 0.93264 1 4 tcp 1040 ------- 1 0.0 5.0 14 20
+ 0.93264 4 5 tcp 1040 ------- 1 0.0 5.0 14 20
- 0.93264 4 5 tcp 1040 ------- 1 0.0 5.0 14 20
- 0.940373 0 1 tcp 1040 ------- 1 0.0 5.0 17 24
r 0.942187 5 4 ack 40 ------- 1 5.0 0.0 13 27
+ 0.942187 4 1 ack 40 ------- 1 5.0 0.0 13 27
- 0.942187 4 1 ack 40 ------- 1 5.0 0.0 13 27
r 0.950373 0 1 tcp 1040 ------- 1 0.0 5.0 16 22
+ 0.950373 1 4 tcp 1040 ------- 1 0.0 5.0 16 22
- 0.950373 1 4 tcp 1040 ------- 1 0.0 5.0 16 22
r 0.953253 4 1 ack 40 ------- 1 5.0 0.0 13 27
+ 0.953253 1 0 ack 40 ------- 1 5.0 0.0 13 27
- 0.953253 1 0 ack 40 ------- 1 5.0 0.0 13 27
r 0.95928 4 5 tcp 1040 ------- 1 0.0 5.0 14 20
r 0.960373 1 4 tcp 1040 ------- 1 0.0 5.0 15 21
+ 0.960373 4 5 tcp 1040 ------- 1 0.0 5.0 15 21
- 0.960373 4 5 tcp 1040 ------- 1 0.0 5.0 15 21
r 0.96432 1 0 ack 40 ------- 1 5.0 0.0 13 27
+ 0.96432 0 1 tcp 1040 ------- 1 0.0 5.0 20 28
+ 0.96432 0 1 tcp 1040 ------- 1 0.0 5.0 21 29
+ 0.96432 0 1 tcp 1040 ------- 1 0.0 5.0 22 30
- 0.968107 0 1 tcp 1040 ------- 1 0.0 5.0 18 25
r 0.978107 0 1 tcp 1040 ------- 1 0.0 5.0 17 24
+ 0.978107 1 4 tcp 1040 ------- 1 0.0 5.0 17 24
- 0.978107 1 4 tcp 1040 ------- 1 0.0 5.0 17 24
r 0.987013 4 5 tcp 1040 ------- 1 0.0 5.0 15 21
+ 0.987013 5 4 ack 40 ------- 1 5.0 0.0 15 31
- 0.987013 5 4 ack 40 ------- 1 5.0 0.0 15 31
r 0.988107 1 4 tcp 1040 ------- 1 0.0 5.0 16 22
+ 0.988107 4 5 tcp 1040 ------- 1 0.0 5.0 16 22
- 0.988107 4 5 tcp 1040 ------- 1 0.0 5.0 16 22
- 0.99584 0 1 tcp 1040 ------- 1 0.0 5.0 19 26
r 0.997653 5 4 ack 40 ------- 1 5.0 0.0 15 31
+ 0.997653 4 1 ack 40 ------- 1 5.0 0.0 15 31
- 0.997653 4 1 ack 40 ------- 1 5.0 0.0 15 31
d 1 4 1 ack 40 ------- 1 5.0 0.0 15 31
v 1 link-down 4 1
v 1 link-down 4 1
d 1 1 4 tcp 1040 ------- 1 0.0 5.0 17 24
v 1 link-down 1 4
v 1 link-down 1 4
r 1.00584 0 1 tcp 1040 ------- 1 0.0 5.0 18 25
r 1.014747 4 5 tcp 1040 ------- 1 0.0 5.0 16 22
- 1.023573 0 1 tcp 1040 ------- 1 0.0 5.0 20 28
r 1.033573 0 1 tcp 1040 ------- 1 0.0 5.0 19 26
- 1.051307 0 1 tcp 1040 ------- 1 0.0 5.0 21 29
r 1.061307 0 1 tcp 1040 ------- 1 0.0 5.0 20 28
- 1.07904 0 1 tcp 1040 ------- 1 0.0 5.0 22 30
r 1.08904 0 1 tcp 1040 ------- 1 0.0 5.0 21 29
+ 1.114747 5 4 ack 40 ------- 1 5.0 0.0 16 32
- 1.114747 5 4 ack 40 ------- 1 5.0 0.0 16 32
r 1.116773 0 1 tcp 1040 ------- 1 0.0 5.0 22 30
r 1.125387 5 4 ack 40 ------- 1 5.0 0.0 16 32
+ 1.24432 0 1 tcp 1040 ------- 1 0.0 5.0 14 33
- 1.24432 0 1 tcp 1040 ------- 1 0.0 5.0 14 33
r 1.282053 0 1 tcp 1040 ------- 1 0.0 5.0 14 33
+ 1.80432 0 1 tcp 1040 ------- 1 0.0 5.0 14 34
- 1.80432 0 1 tcp 1040 ------- 1 0.0 5.0 14 34
r 1.842053 0 1 tcp 1040 ------- 1 0.0 5.0 14 34
+ 2.92432 0 1 tcp 1040 ------- 1 0.0 5.0 14 35
- 2.92432 0 1 tcp 1040 ------- 1 0.0 5.0 14 35
r 2.962053 0 1 tcp 1040 ------- 1 0.0 5.0 14 35
v 4.5 link-up 4 1
v 4.5 link-up 4 1
v 4.5 link-up 1 4
v 4.5 link-up 1 4
+ 5.16432 0 1 tcp 1040 ------- 1 0.0 5.0 14 36
- 5.16432 0 1 tcp 1040 ------- 1 0.0 5.0 14 36
r 5.202053 0 1 tcp 1040 ------- 1 0.0 5.0 14 36
+ 5.202053 1 4 tcp 1040 ------- 1 0.0 5.0 14 36
- 5.202053 1 4 tcp 1040 ------- 1 0.0 5.0 14 36
r 5.239787 1 4 tcp 1040 ------- 1 0.0 5.0 14 36
+ 5.239787 4 5 tcp 1040 ------- 1 0.0 5.0 14 36
- 5.239787 4 5 tcp 1040 ------- 1 0.0 5.0 14 36
r 5.266427 4 5 tcp 1040 ------- 1 0.0 5.0 14 36
+ 5.266427 5 4 ack 40 ------- 1 5.0 0.0 16 37
- 5.266427 5 4 ack 40 ------- 1 5.0 0.0 16 37
r 5.277067 5 4 ack 40 ------- 1 5.0 0.0 16 37
+ 5.277067 4 1 ack 40 ------- 1 5.0 0.0 16 37
- 5.277067 4 1 ack 40 ------- 1 5.0 0.0 16 37
r 5.288133 4 1 ack 40 ------- 1 5.0 0.0 16 37
+ 5.288133 1 0 ack 40 ------- 1 5.0 0.0 16 37
- 5.288133 1 0 ack 40 ------- 1 5.0 0.0 16 37
r 5.2992 1 0 ack 40 ------- 1 5.0 0.0 16 37
+ 5.2992 0 1 tcp 1040 ------- 1 0.0 5.0 17 38
- 5.2992 0 1 tcp 1040 ------- 1 0.0 5.0 17 38
+ 5.2992 0 1 tcp 1040 ------- 1 0.0 5.0 18 39
- 5.326933 0 1 tcp 1040 ------- 1 0.0 5.0 18 39
r 5.336933 0 1 tcp 1040 ------- 1 0.0 5.0 17 38
+ 5.336933 1 4 tcp 1040 ------- 1 0.0 5.0 17 38
- 5.336933 1 4 tcp 1040 ------- 1 0.0 5.0 17 38
r 5.364667 0 1 tcp 1040 ------- 1 0.0 5.0 18 39
+ 5.364667 1 4 tcp 1040 ------- 1 0.0 5.0 18 39
- 5.364667 1 4 tcp 1040 ------- 1 0.0 5.0 18 39
r 5.374667 1 4 tcp 1040 ------- 1 0.0 5.0 17 38
+ 5.374667 4 5 tcp 1040 ------- 1 0.0 5.0 17 38
- 5.374667 4 5 tcp 1040 ------- 1 0.0 5.0 17 38
r 5.401307 4 5 tcp 1040 ------- 1 0.0 5.0 17 38
r 5.4024 1 4 tcp 1040 ------- 1 0.0 5.0 18 39
+ 5.4024 4 5 tcp 1040 ------- 1 0.0 5.0 18 39
- 5.4024 4 5 tcp 1040 ------- 1 0.0 5.0 18 39
r 5.42904 4 5 tcp 1040 ------- 1 0.0 5.0 18 39
+ 5.42904 5 4 ack 40 ------- 1 5.0 0.0 18 40
- 5.42904 5 4 ack 40 ------- 1 5.0 0.0 18 40
r 5.43968 5 4 ack 40 ------- 1 5.0 0.0 18 40
+ 5.43968 4 1 ack 40 ------- 1 5.0 0.0 18 40
- 5.43968 4 1 ack 40 ------- 1 5.0 0.0 18 40
r 5.450747 4 1 ack 40 ------- 1 5.0 0.0 18 40
+ 5.450747 1 0 ack 40 ------- 1 5.0 0.0 18 40
- 5.450747 1 0 ack 40 ------- 1 5.0 0.0 18 40
r 5.461813 1 0 ack 40 ------- 1 5.0 0.0 18 40
+ 5.461813 0 1 tcp 1040 ------- 1 0.0 5.0 19 41
- 5.461813 0 1 tcp 1040 ------- 1 0.0 5.0 19 41
+ 5.461813 0 1 tcp 1040 ------- 1 0.0 5.0 20 42
- 5.489547 0 1 tcp 1040 ------- 1 0.0 5.0 20 42
r 5.499547 0 1 tcp 1040 ------- 1 0.0 5.0 19 41
+ 5.499547 1 4 tcp 1040 ------- 1 0.0 5.0 19 41
- 5.499547 1 4 tcp 1040 ------- 1 0.0 5.0 19 41
r 5.52728 0 1 tcp 1040 ------- 1 0.0 5.0 20 42
+ 5.52728 1 4 tcp 1040 ------- 1 0.0 5.0 20 42
- 5.52728 1 4 tcp 1040 ------- 1 0.0 5.0 20 42
r 5.53728 1 4 tcp 1040 ------- 1 0.0 5.0 19 41
+ 5.53728 4 5 tcp 1040 ------- 1 0.0 5.0 19 41
- 5.53728 4 5 tcp 1040 ------- 1 0.0 5.0 19 41
r 5.56392 4 5 tcp 1040 ------- 1 0.0 5.0 19 41
r 5.565013 1 4 tcp 1040 ------- 1 0.0 5.0 20 42
+ 5.565013 4 5 tcp 1040 ------- 1 0.0 5.0 20 42
- 5.565013 4 5 tcp 1040 ------- 1 0.0 5.0 20 42
r 5.591653 4 5 tcp 1040 ------- 1 0.0 5.0 20 42
+ 5.591653 5 4 ack 40 ------- 1 5.0 0.0 20 43
- 5.591653 5 4 ack 40 ------- 1 5.0 0.0 20 43
r 5.602293 5 4 ack 40 ------- 1 5.0 0.0 20 43
+ 5.602293 4 1 ack 40 ------- 1 5.0 0.0 20 43
- 5.602293 4 1 ack 40 ------- 1 5.0 0.0 20 43
r 5.61336 4 1 ack 40 ------- 1 5.0 0.0 20 43
+ 5.61336 1 0 ack 40 ------- 1 5.0 0.0 20 43
- 5.61336 1 0 ack 40 ------- 1 5.0 0.0 20 43
r 5.624427 1 0 ack 40 ------- 1 5.0 0.0 20 43
+ 5.624427 0 1 tcp 1040 ------- 1 0.0 5.0 21 44
- 5.624427 0 1 tcp 1040 ------- 1 0.0 5.0 21 44
+ 5.624427 0 1 tcp 1040 ---A--- 1 0.0 5.0 22 45
- 5.65216 0 1 tcp 1040 ---A--- 1 0.0 5.0 22 45
r 5.66216 0 1 tcp 1040 ------- 1 0.0 5.0 21 44
+ 5.66216 1 4 tcp 1040 ------- 1 0.0 5.0 21 44
- 5.66216 1 4 tcp 1040 ------- 1 0.0 5.0 21 44
r 5.689893 0 1 tcp 1040 ---A--- 1 0.0 5.0 22 45
+ 5.689893 1 4 tcp 1040 ---A--- 1 0.0 5.0 22 45
- 5.689893 1 4 tcp 1040 ---A--- 1 0.0 5.0 22 45
r 5.699893 1 4 tcp 1040 ------- 1 0.0 5.0 21 44
+ 5.699893 4 5 tcp 1040 ------- 1 0.0 5.0 21 44
- 5.699893 4 5 tcp 1040 ------- 1 0.0 5.0 21 44
r 5.726533 4 5 tcp 1040 ------- 1 0.0 5.0 21 44
r 5.727627 1 4 tcp 1040 ---A--- 1 0.0 5.0 22 45
+ 5.727627 4 5 tcp 1040 ---A--- 1 0.0 5.0 22 45
- 5.727627 4 5 tcp 1040 ---A--- 1 0.0 5.0 22 45
r 5.754267 4 5 tcp 1040 ---A--- 1 0.0 5.0 22 45
+ 5.754267 5 4 ack 40 ------- 1 5.0 0.0 22 46
- 5.754267 5 4 ack 40 ------- 1 5.0 0.0 22 46
r 5.764907 5 4 ack 40 ------- 1 5.0 0.0 22 46
+ 5.764907 4 1 ack 40 ------- 1 5.0 0.0 22 46
- 5.764907 4 1 ack 40 ------- 1 5.0 0.0 22 46
r 5.775973 4 1 ack 40 ------- 1 5.0 0.0 22 46
+ 5.775973 1 0 ack 40 ------- 1 5.0 0.0 22 46
- 5.775973 1 0 ack 40 ------- 1 5.0 0.0 22 46
r 5.78704 1 0 ack 40 ------- 1 5.0 0.0 22 46
+ 5.78704 0 1 tcp 1040 ------- 1 0.0 5.0 23 47
- 5.78704 0 1 tcp 1040 ------- 1 0.0 5.0 23 47
+ 5.78704 0 1 tcp 1040 ------- 1 0.0 5.0 24 48
+ 5.78704 0 1 tcp 1040 ------- 1 0.0 5.0 25 49
- 5.814773 0 1 tcp 1040 ------- 1 0.0 5.0 24 48
r 5.824773 0 1 tcp 1040 ------- 1 0.0 5.0 23 47
+ 5.824773 1 4 tcp 1040 ------- 1 0.0 5.0 23 47
- 5.824773 1 4 tcp 1040 ------- 1 0.0 5.0 23 47
- 5.842507 0 1 tcp 1040 ------- 1 0.0 5.0 25 49
r 5.852507 0 1 tcp 1040 ------- 1 0.0 5.0 24 48
+ 5.852507 1 4 tcp 1040 ------- 1 0.0 5.0 24 48
- 5.852507 1 4 tcp 1040 ------- 1 0.0 5.0 24 48
r 5.862507 1 4 tcp 1040 ------- 1 0.0 5.0 23 47
+ 5.862507 4 5 tcp 1040 ------- 1 0.0 5.0 23 47
- 5.862507 4 5 tcp 1040 ------- 1 0.0 5.0 23 47
r 5.88024 0 1 tcp 1040 ------- 1 0.0 5.0 25 49
+ 5.88024 1 4 tcp 1040 ------- 1 0.0 5.0 25 49
- 5.88024 1 4 tcp 1040 ------- 1 0.0 5.0 25 49
r 5.889147 4 5 tcp 1040 ------- 1 0.0 5.0 23 47
r 5.89024 1 4 tcp 1040 ------- 1 0.0 5.0 24 48
+ 5.89024 4 5 tcp 1040 ------- 1 0.0 5.0 24 48
- 5.89024 4 5 tcp 1040 ------- 1 0.0 5.0 24 48
r 5.91688 4 5 tcp 1040 ------- 1 0.0 5.0 24 48
+ 5.91688 5 4 ack 40 ------- 1 5.0 0.0 24 50
- 5.91688 5 4 ack 40 ------- 1 5.0 0.0 24 50
r 5.917973 1 4 tcp 1040 ------- 1 0.0 5.0 25 49
+ 5.917973 4 5 tcp 1040 ------- 1 0.0 5.0 25 49
- 5.917973 4 5 tcp 1040 ------- 1 0.0 5.0 25 49
r 5.92752 5 4 ack 40 ------- 1 5.0 0.0 24 50
+ 5.92752 4 1 ack 40 ------- 1 5.0 0.0 24 50
- 5.92752 4 1 ack 40 ------- 1 5.0 0.0 24 50
r 5.938587 4 1 ack 40 ------- 1 5.0 0.0 24 50
+ 5.938587 1 0 ack 40 ------- 1 5.0 0.0 24 50
- 5.938587 1 0 ack 40 ------- 1 5.0 0.0 24 50
r 5.944613 4 5 tcp 1040 ------- 1 0.0 5.0 25 49
r 5.949653 1 0 ack 40 ------- 1 5.0 0.0 24 50
+ 5.949653 0 1 tcp 1040 ------- 1 0.0 5.0 26 51
- 5.949653 0 1 tcp 1040 ------- 1 0.0 5.0 26 51
+ 5.949653 0 1 tcp 1040 ------- 1 0.0 5.0 27 52
- 5.977387 0 1 tcp 1040 ------- 1 0.0 5.0 27 52
r 5.987387 0 1 tcp 1040 ------- 1 0.0 5.0 26 51
+ 5.987387 1 4 tcp 1040 ------- 1 0.0 5.0 26 51
- 5.987387 1 4 tcp 1040 ------- 1 0.0 5.0 26 51
r 6.01512 0 1 tcp 1040 ------- 1 0.0 5.0 27 52
+ 6.01512 1 4 tcp 1040 ------- 1 0.0 5.0 27 52
- 6.01512 1 4 tcp 1040 ------- 1 0.0 5.0 27 52
r 6.02512 1 4 tcp 1040 ------- 1 0.0 5.0 26 51
+ 6.02512 4 5 tcp 1040 ------- 1 0.0 5.0 26 51
- 6.02512 4 5 tcp 1040 ------- 1 0.0 5.0 26 51
+ 6.044613 5 4 ack 40 ------- 1 5.0 0.0 25 53
- 6.044613 5 4 ack 40 ------- 1 5.0 0.0 25 53
r 6.05176 4 5 tcp 1040 ------- 1 0.0 5.0 26 51
r 6.052853 1 4 tcp 1040 ------- 1 0.0 5.0 27 52
+ 6.052853 4 5 tcp 1040 ------- 1 0.0 5.0 27 52
- 6.052853 4 5 tcp 1040 ------- 1 0.0 5.0 27 52
r 6.055253 5 4 ack 40 ------- 1 5.0 0.0 25 53
+ 6.055253 4 1 ack 40 ------- 1 5.0 0.0 25 53
- 6.055253 4 1 ack 40 ------- 1 5.0 0.0 25 53
r 6.06632 4 1 ack 40 ------- 1 5.0 0.0 25 53
+ 6.06632 1 0 ack 40 ------- 1 5.0 0.0 25 53
- 6.06632 1 0 ack 40 ------- 1 5.0 0.0 25 53
r 6.077387 1 0 ack 40 ------- 1 5.0 0.0 25 53
+ 6.077387 0 1 tcp 1040 ------- 1 0.0 5.0 28 54
- 6.077387 0 1 tcp 1040 ------- 1 0.0 5.0 28 54
r 6.079493 4 5 tcp 1040 ------- 1 0.0 5.0 27 52
+ 6.079493 5 4 ack 40 ------- 1 5.0 0.0 27 55
- 6.079493 5 4 ack 40 ------- 1 5.0 0.0 27 55
r 6.090133 5 4 ack 40 ------- 1 5.0 0.0 27 55
+ 6.090133 4 1 ack 40 ------- 1 5.0 0.0 27 55
- 6.090133 4 1 ack 40 ------- 1 5.0 0.0 27 55
r 6.1012 4 1 ack 40 ------- 1 5.0 0.0 27 55
+ 6.1012 1 0 ack 40 ------- 1 5.0 0.0 27 55
- 6.1012 1 0 ack 40 ------- 1 5.0 0.0 27 55
r 6.112267 1 0 ack 40 ------- 1 5.0 0.0 27 55
+ 6.112267 0 1 tcp 1040 ------- 1 0.0 5.0 29 56
- 6.112267 0 1 tcp 1040 ------- 1 0.0 5.0 29 56
+ 6.112267 0 1 tcp 1040 ------- 1 0.0 5.0 30 57
+ 6.112267 0 1 tcp 1040 ------- 1 0.0 5.0 31 58
r 6.11512 0 1 tcp 1040 ------- 1 0.0 5.0 28 54
+ 6.11512 1 4 tcp 1040 ------- 1 0.0 5.0 28 54
- 6.11512 1 4 tcp 1040 ------- 1 0.0 5.0 28 54
- 6.14 0 1 tcp 1040 ------- 1 0.0 5.0 30 57
r 6.15 0 1 tcp 1040 ------- 1 0.0 5.0 29 56
+ 6.15 1 4 tcp 1040 ------- 1 0.0 5.0 29 56
- 6.15 1 4 tcp 1040 ------- 1 0.0 5.0 29 56
r 6.152853 1 4 tcp 1040 ------- 1 0.0 5.0 28 54
+ 6.152853 4 5 tcp 1040 ------- 1 0.0 5.0 28 54
- 6.152853 4 5 tcp 1040 ------- 1 0.0 5.0 28 54
- 6.167733 0 1 tcp 1040 ------- 1 0.0 5.0 31 58
r 6.177733 0 1 tcp 1040 ------- 1 0.0 5.0 30 57
+ 6.177733 1 4 tcp 1040 ------- 1 0.0 5.0 30 57
- 6.177733 1 4 tcp 1040 ------- 1 0.0 5.0 30 57
r 6.179493 4 5 tcp 1040 ------- 1 0.0 5.0 28 54
r 6.187733 1 4 tcp 1040 ------- 1 0.0 5.0 29 56
+ 6.187733 4 5 tcp 1040 ------- 1 0.0 5.0 29 56
- 6.187733 4 5 tcp 1040 ------- 1 0.0 5.0 29 56
r 6.205467 0 1 tcp 1040 ------- 1 0.0 5.0 31 58
+ 6.205467 1 4 tcp 1040 ------- 1 0.0 5.0 31 58
- 6.205467 1 4 tcp 1040 ------- 1 0.0 5.0 31 58
r 6.214373 4 5 tcp 1040 ------- 1 0.0 5.0 29 56
+ 6.214373 5 4 ack 40 ------- 1 5.0 0.0 29 59
- 6.214373 5 4 ack 40 ------- 1 5.0 0.0 29 59
r 6.215467 1 4 tcp 1040 ------- 1 0.0 5.0 30 57
+ 6.215467 4 5 tcp 1040 ------- 1 0.0 5.0 30 57
- 6.215467 4 5 tcp 1040 ------- 1 0.0 5.0 30 57
r 6.225013 5 4 ack 40 ------- 1 5.0 0.0 29 59
+ 6.225013 4 1 ack 40 ------- 1 5.0 0.0 29 59
- 6.225013 4 1 ack 40 ------- 1 5.0 0.0 29 59
r 6.23608 4 1 ack 40 ------- 1 5.0 0.0 29 59
+ 6.23608 1 0 ack 40 ------- 1 5.0 0.0 29 59
- 6.23608 1 0 ack 40 ------- 1 5.0 0.0 29 59
r 6.242107 4 5 tcp 1040 ------- 1 0.0 5.0 30 57
r 6.2432 1 4 tcp 1040 ------- 1 0.0 5.0 31 58
+ 6.2432 4 5 tcp 1040 ------- 1 0.0 5.0 31 58
- 6.2432 4 5 tcp 1040 ------- 1 0.0 5.0 31 58
r 6.247147 1 0 ack 40 ------- 1 5.0 0.0 29 59
+ 6.247147 0 1 tcp 1040 ------- 1 0.0 5.0 32 60
- 6.247147 0 1 tcp 1040 ------- 1 0.0 5.0 32 60
+ 6.247147 0 1 tcp 1040 ------- 1 0.0 5.0 33 61
r 6.26984 4 5 tcp 1040 ------- 1 0.0 5.0 31 58
+ 6.26984 5 4 ack 40 ------- 1 5.0 0.0 31 62
- 6.26984 5 4 ack 40 ------- 1 5.0 0.0 31 62
- 6.27488 0 1 tcp 1040 ------- 1 0.0 5.0 33 61
r 6.28048 5 4 ack 40 ------- 1 5.0 0.0 31 62
+ 6.28048 4 1 ack 40 ------- 1 5.0 0.0 31 62
- 6.28048 4 1 ack 40 ------- 1 5.0 0.0 31 62
r 6.28488 0 1 tcp 1040 ------- 1 0.0 5.0 32 60
+ 6.28488 1 4 tcp 1040 ------- 1 0.0 5.0 32 60
- 6.28488 1 4 tcp 1040 ------- 1 0.0 5.0 32 60
r 6.291547 4 1 ack 40 ------- 1 5.0 0.0 31 62
+ 6.291547 1 0 ack 40 ------- 1 5.0 0.0 31 62
- 6.291547 1 0 ack 40 ------- 1 5.0 0.0 31 62
r 6.302613 1 0 ack 40 ------- 1 5.0 0.0 31 62
+ 6.302613 0 1 tcp 1040 ------- 1 0.0 5.0 34 63
- 6.302613 0 1 tcp 1040 ------- 1 0.0 5.0 34 63
+ 6.302613 0 1 tcp 1040 ------- 1 0.0 5.0 35 64
r 6.312613 0 1 tcp 1040 ------- 1 0.0 5.0 33 61
+ 6.312613 1 4 tcp 1040 ------- 1 0.0 5.0 33 61
- 6.312613 1 4 tcp 1040 ------- 1 0.0 5.0 33 61
r 6.322613 1 4 tcp 1040 ------- 1 0.0 5.0 32 60
+ 6.322613 4 5 tcp 1040 ------- 1 0.0 5.0 32 60
- 6.322613 4 5 tcp 1040 ------- 1 0.0 5.0 32 60
- 6.330347 0 1 tcp 1040 ------- 1 0.0 5.0 35 64
r 6.340347 0 1 tcp 1040 ------- 1 0.0 5.0 34 63
+ 6.340347 1 4 tcp 1040 ------- 1 0.0 5.0 34 63
- 6.340347 1 4 tcp 1040 ------- 1 0.0 5.0 34 63
r 6.349253 4 5 tcp 1040 ------- 1 0.0 5.0 32 60
r 6.350347 1 4 tcp 1040 ------- 1 0.0 5.0 33 61
+ 6.350347 4 5 tcp 1040 ------- 1 0.0 5.0 33 61
- 6.350347 4 5 tcp 1040 ------- 1 0.0 5.0 33 61
r 6.36808 0 1 tcp 1040 ------- 1 0.0 5.0 35 64
+ 6.36808 1 4 tcp 1040 ------- 1 0.0 5.0 35 64
- 6.36808 1 4 tcp 1040 ------- 1 0.0 5.0 35 64
r 6.376987 4 5 tcp 1040 ------- 1 0.0 5.0 33 61
+ 6.376987 5 4 ack 40 ------- 1 5.0 0.0 33 65
- 6.376987 5 4 ack 40 ------- 1 5.0 0.0 33 65
r 6.37808 1 4 tcp 1040 ------- 1 0.0 5.0 34 63
+ 6.37808 4 5 tcp 1040 ------- 1 0.0 5.0 34 63
- 6.37808 4 5 tcp 1040 ------- 1 0.0 5.0 34 63
r 6.387627 5 4 ack 40 ------- 1 5.0 0.0 33 65
+ 6.387627 4 1 ack 40 ------- 1 5.0 0.0 33 65
- 6.387627 4 1 ack 40 ------- 1 5.0 0.0 33 65
r 6.398693 4 1 ack 40 ------- 1 5.0 0.0 33 65
+ 6.398693 1 0 ack 40 ------- 1 5.0 0.0 33 65
- 6.398693 1 0 ack 40 ------- 1 5.0 0.0 33 65
r 6.40472 4 5 tcp 1040 ------- 1 0.0 5.0 34 63
r 6.405813 1 4 tcp 1040 ------- 1 0.0 5.0 35 64
+ 6.405813 4 5 tcp 1040 ------- 1 0.0 5.0 35 64
- 6.405813 4 5 tcp 1040 ------- 1 0.0 5.0 35 64
r 6.40976 1 0 ack 40 ------- 1 5.0 0.0 33 65
+ 6.40976 0 1 tcp 1040 ------- 1 0.0 5.0 36 66
- 6.40976 0 1 tcp 1040 ------- 1 0.0 5.0 36 66
+ 6.40976 0 1 tcp 1040 ------- 1 0.0 5.0 37 67
r 6.432453 4 5 tcp 1040 ------- 1 0.0 5.0 35 64
+ 6.432453 5 4 ack 40 ------- 1 5.0 0.0 35 68
- 6.432453 5 4 ack 40 ------- 1 5.0 0.0 35 68
- 6.437493 0 1 tcp 1040 ------- 1 0.0 5.0 37 67
r 6.443093 5 4 ack 40 ------- 1 5.0 0.0 35 68
+ 6.443093 4 1 ack 40 ------- 1 5.0 0.0 35 68
- 6.443093 4 1 ack 40 ------- 1 5.0 0.0 35 68
r 6.447493 0 1 tcp 1040 ------- 1 0.0 5.0 36 66
+ 6.447493 1 4 tcp 1040 ------- 1 0.0 5.0 36 66
- 6.447493 1 4 tcp 1040 ------- 1 0.0 5.0 36 66
r 6.45416 4 1 ack 40 ------- 1 5.0 0.0 35 68
+ 6.45416 1 0 ack 40 ------- 1 5.0 0.0 35 68
- 6.45416 1 0 ack 40 ------- 1 5.0 0.0 35 68
r 6.465227 1 0 ack 40 ------- 1 5.0 0.0 35 68
+ 6.465227 0 1 tcp 1040 ------- 1 0.0 5.0 38 69
- 6.465227 0 1 tcp 1040 ------- 1 0.0 5.0 38 69
+ 6.465227 0 1 tcp 1040 ------- 1 0.0 5.0 39 70
r 6.475227 0 1 tcp 1040 ------- 1 0.0 5.0 37 67
+ 6.475227 1 4 tcp 1040 ------- 1 0.0 5.0 37 67
- 6.475227 1 4 tcp 1040 ------- 1 0.0 5.0 37 67
r 6.485227 1 4 tcp 1040 ------- 1 0.0 5.0 36 66
+ 6.485227 4 5 tcp 1040 ------- 1 0.0 5.0 36 66
- 6.485227 4 5 tcp 1040 ------- 1 0.0 5.0 36 66
- 6.49296 0 1 tcp 1040 ------- 1 0.0 5.0 39 70
r 6.50296 0 1 tcp 1040 ------- 1 0.0 5.0 38 69
+ 6.50296 1 4 tcp 1040 ------- 1 0.0 5.0 38 69
- 6.50296 1 4 tcp 1040 ------- 1 0.0 5.0 38 69
r 6.511867 4 5 tcp 1040 ------- 1 0.0 5.0 36 66
r 6.51296 1 4 tcp 1040 ------- 1 0.0 5.0 37 67
+ 6.51296 4 5 tcp 1040 ------- 1 0.0 5.0 37 67
- 6.51296 4 5 tcp 1040 ------- 1 0.0 5.0 37 67
r 6.530693 0 1 tcp 1040 ------- 1 0.0 5.0 39 70
+ 6.530693 1 4 tcp 1040 ------- 1 0.0 5.0 39 70
- 6.530693 1 4 tcp 1040 ------- 1 0.0 5.0 39 70
r 6.5396 4 5 tcp 1040 ------- 1 0.0 5.0 37 67
+ 6.5396 5 4 ack 40 ------- 1 5.0 0.0 37 71
- 6.5396 5 4 ack 40 ------- 1 5.0 0.0 37 71
r 6.540693 1 4 tcp 1040 ------- 1 0.0 5.0 38 69
+ 6.540693 4 5 tcp 1040 ------- 1 0.0 5.0 38 69
- 6.540693 4 5 tcp 1040 ------- 1 0.0 5.0 38 69
r 6.55024 5 4 ack 40 ------- 1 5.0 0.0 37 71
+ 6.55024 4 1 ack 40 ------- 1 5.0 0.0 37 71
- 6.55024 4 1 ack 40 ------- 1 5.0 0.0 37 71
r 6.561307 4 1 ack 40 ------- 1 5.0 0.0 37 71
+ 6.561307 1 0 ack 40 ------- 1 5.0 0.0 37 71
- 6.561307 1 0 ack 40 ------- 1 5.0 0.0 37 71
r 6.567333 4 5 tcp 1040 ------- 1 0.0 5.0 38 69
r 6.568427 1 4 tcp 1040 ------- 1 0.0 5.0 39 70
+ 6.568427 4 5 tcp 1040 ------- 1 0.0 5.0 39 70
- 6.568427 4 5 tcp 1040 ------- 1 0.0 5.0 39 70
r 6.572373 1 0 ack 40 ------- 1 5.0 0.0 37 71
+ 6.572373 0 1 tcp 1040 ------- 1 0.0 5.0 40 72
- 6.572373 0 1 tcp 1040 ------- 1 0.0 5.0 40 72
+ 6.572373 0 1 tcp 1040 ------- 1 0.0 5.0 41 73
+ 6.572373 0 1 tcp 1040 ------- 1 0.0 5.0 42 74
r 6.595067 4 5 tcp 1040 ------- 1 0.0 5.0 39 70
+ 6.595067 5 4 ack 40 ------- 1 5.0 0.0 39 75
- 6.595067 5 4 ack 40 ------- 1 5.0 0.0 39 75
- 6.600107 0 1 tcp 1040 ------- 1 0.0 5.0 41 73
r 6.605707 5 4 ack 40 ------- 1 5.0 0.0 39 75
+ 6.605707 4 1 ack 40 ------- 1 5.0 0.0 39 75
- 6.605707 4 1 ack 40 ------- 1 5.0 0.0 39 75
r 6.610107 0 1 tcp 1040 ------- 1 0.0 5.0 40 72
+ 6.610107 1 4 tcp 1040 ------- 1 0.0 5.0 40 72
- 6.610107 1 4 tcp 1040 ------- 1 0.0 5.0 40 72
r 6.616773 4 1 ack 40 ------- 1 5.0 0.0 39 75
+ 6.616773 1 0 ack 40 ------- 1 5.0 0.0 39 75
- 6.616773 1 0 ack 40 ------- 1 5.0 0.0 39 75
- 6.62784 0 1 tcp 1040 ------- 1 0.0 5.0 42 74
r 6.62784 1 0 ack 40 ------- 1 5.0 0.0 39 75
+ 6.62784 0 1 tcp 1040 ------- 1 0.0 5.0 43 76
+ 6.62784 0 1 tcp 1040 ------- 1 0.0 5.0 44 77
r 6.63784 0 1 tcp 1040 ------- 1 0.0 5.0 41 73
+ 6.63784 1 4 tcp 1040 ------- 1 0.0 5.0 41 73
- 6.63784 1 4 tcp 1040 ------- 1 0.0 5.0 41 73
r 6.64784 1 4 tcp 1040 ------- 1 0.0 5.0 40 72
+ 6.64784 4 5 tcp 1040 ------- 1 0.0 5.0 40 72
- 6.64784 4 5 tcp 1040 ------- 1 0.0 5.0 40 72
- 6.655573 0 1 tcp 1040 ------- 1 0.0 5.0 43 76
r 6.665573 0 1 tcp 1040 ------- 1 0.0 5.0 42 74
+ 6.665573 1 4 tcp 1040 ------- 1 0.0 5.0 42 74
- 6.665573 1 4 tcp 1040 ------- 1 0.0 5.0 42 74
r 6.67448 4 5 tcp 1040 ------- 1 0.0 5.0 40 72
r 6.675573 1 4 tcp 1040 ------- 1 0.0 5.0 41 73
+ 6.675573 4 5 tcp 1040 ------- 1 0.0 5.0 41 73
- 6.675573 4 5 tcp 1040 ------- 1 0.0 5.0 41 73
- 6.683307 0 1 tcp 1040 ------- 1 0.0 5.0 44 77
r 6.693307 0 1 tcp 1040 ------- 1 0.0 5.0 43 76
+ 6.693307 1 4 tcp 1040 ------- 1 0.0 5.0 43 76
- 6.693307 1 4 tcp 1040 ------- 1 0.0 5.0 43 76
r 6.702213 4 5 tcp 1040 ------- 1 0.0 5.0 41 73
+ 6.702213 5 4 ack 40 ------- 1 5.0 0.0 41 78
- 6.702213 5 4 ack 40 ------- 1 5.0 0.0 41 78
r 6.703307 1 4 tcp 1040 ------- 1 0.0 5.0 42 74
+ 6.703307 4 5 tcp 1040 ------- 1 0.0 5.0 42 74
- 6.703307 4 5 tcp 1040 ------- 1 0.0 5.0 42 74
r 6.712853 5 4 ack 40 ------- 1 5.0 0.0 41 78
+ 6.712853 4 1 ack 40 ------- 1 5.0 0.0 41 78
- 6.712853 4 1 ack 40 ------- 1 5.0 0.0 41 78
r 6.72104 0 1 tcp 1040 ------- 1 0.0 5.0 44 77
+ 6.72104 1 4 tcp 1040 ------- 1 0.0 5.0 44 77
- 6.72104 1 4 tcp 1040 ------- 1 0.0 5.0 44 77
r 6.72392 4 1 ack 40 ------- 1 5.0 0.0 41 78
+ 6.72392 1 0 ack 40 ------- 1 5.0 0.0 41 78
- 6.72392 1 0 ack 40 ------- 1 5.0 0.0 41 78