V -t * -v 1.0a5 -a 0
A -t * -n 1 -p 0 -o 0xffffffff -c 31 -a 1
A -t * -h 1 -m 2147483647 -s 0
c -t * -i 1 -n Blue
c -t * -i 2 -n Red
n -t * -a 4 -s 4 -S UP -v circle -c black -i black
n -t * -a 0 -s 0 -S UP -v circle -c black -i black
n -t * -a 5 -s 5 -S UP -v circle -c black -i black
n -t * -a 1 -s 1 -S UP -v circle -c black -i black
n -t * -a 2 -s 2 -S UP -v circle -c black -i black
n -t * -a 3 -s 3 -S UP -v circle -c black -i black
l -t * -s 0 -d 1 -S UP -r 300000 -D 0.01 -c black -o right
l -t * -s 1 -d 2 -S UP -r 300000 -D 0.01 -c black -o right
l -t * -s 2 -d 3 -S UP -r 300000 -D 0.01 -c black -o up
l -t * -s 1 -d 4 -S UP -r 300000 -D 0.01 -c black -o up-left
l -t * -s 3 -d 5 -S UP -r 500000 -D 0.01 -c black -o left-up
l -t * -s 4 -d 5 -S UP -r 500000 -D 0.01 -c black -o right-up
+ -t 0.1 -s 0 -d 1 -p tcp -e 40 -c 1 -i 0 -a 1 -x {0.0 5.0 0 ------- null}
- -t 0.1 -s 0 -d 1 -p tcp -e 40 -c 1 -i 0 -a 1 -x {0.0 5.0 0 ------- null}
h -t 0.1 -s 0 -d 1 -p tcp -e 40 -c 1 -i 0 -a 1 -x {0.0 5.0 -1 ------- null}
r -t 0.111066666666667 -s 0 -d 1 -p tcp -e 40 -c 1 -i 0 -a 1 -x {0.0 5.0 0 ------- null}
+ -t 0.111066666666667 -s 1 -d 4 -p tcp -e 40 -c 1 -i 0 -a 1 -x {0.0 5.0 0 ------- null}
- -t 0.111066666666667 -s 1 -d 4 -p tcp -e 40 -c 1 -i 0 -a 1 -x {0.0 5.0 0 ------- null}
h -t 0.111066666666667 -s 1 -d 4 -p tcp -e 40 -c 1 -i 0 -a 1 -x {0.0 5.0 -1 ------- null}
r -t 0.122133333333333 -s 1 -d 4 -p tcp -e 40 -c 1 -i 0 -a 1 -x {0.0 5.0 0 ------- null}
+ -t 0.122133333333333 -s 4 -d 5 -p tcp -e 40 -c 1 -i 0 -a 1 -x {0.0 5.0 0 ------- null}
- -t 0.122133333333333 -s 4 -d 5 -p tcp -e 40 -c 1 -i 0 -a 1 -x {0.0 5.0 0 ------- null}
h -t 0.122133333333333 -s 4 -d 5 -p tcp -e 40 -c 1 -i 0 -a 1 -x {0.0 5.0 -1 ------- null}
r -t 0.132773333333333 -s 4 -d 5 -p tcp -e 40 -c 1 -i 0 -a 1 -x {0.0 5.0 0 ------- null}
+ -t 0.232773333333333 -s 5 -d 4 -p ack -e 40 -c 1 -i 1 -a 1 -x {5.0 0.0 0 ------- null}
- -t 0.232773333333333 -s 5 -d 4 -p ack -e 40 -c 1 -i 1 -a 1 -x {5.0 0.0 0 ------- null}
h -t 0.232773333333333 -s 5 -d 4 -p ack -e 40 -c 1 -i 1 -a 1 -x {5.0 0.0 -1 ------- null}
r -t 0.243413333333333 -s 5 -d 4 -p ack -e 40 -c 1 -i 1 -a 1 -x {5.0 0.0 0 ------- null}
+ -t 0.243413333333333 -s 4 -d 1 -p ack -e 40 -c 1 -i 1 -a 1 -x {5.0 0.0 0 ------- null}
- -t 0.243413333333333 -s 4 -d 1 -p ack -e 40 -c 1 -i 1 -a 1 -x {5.0 0.0 0 ------- null}
h -t 0.243413333333333 -s 4 -d 1 -p ack -e 40 -c 1 -i 1 -a 1 -x {5.0 0.0 -1 ------- null}
r -t 0.25448 -s 4 -d 1 -p ack -e 40 -c 1 -i 1 -a 1 -x {5.0 0.0 0 ------- null}
+ -t 0.25448 -s 1 -d 0 -p ack -e 40 -c 1 -i 1 -a 1 -x {5.0 0.0 0 ------- null}
- -t 0.25448 -s 1 -d 0 -p ack -e 40 -c 1 -i 1 -a 1 -x {5.0 0.0 0 ------- null}
h -t 0.25448 -s 1 -d 0 -p ack -e 40 -c 1 -i 1 -a 1 -x {5.0 0.0 -1 ------- null}
r -t 0.265546666666667 -s 1 -d 0 -p ack -e 40 -c 1 -i 1 -a 1 -x {5.0 0.0 0 ------- null}
+ -t 0.265546666666667 -s 0 -d 1 -p tcp -e 1040 -c 1 -i 2 -a 1 -x {0.0 5.0 1 ------- null}
- -t 0.265546666666667 -s 0 -d 1 -p tcp -e 1040 -c 1 -i 2 -a 1 -x {0.0 5.0 1 ------- null}
h -t 0.265546666666667 -s 0 -d 1 -p tcp -e 1040 -c 1 -i 2 -a 1 -x {0.0 5.0 -1 ------- null}
+ -t 0.265546666666667 -s 0 -d 1 -p tcp -e 1040 -c 1 -i 3 -a 1 -x {0.0 5.0 2 ------- null}
- -t 0.29328 -s 0 -d 1 -p tcp -e 1040 -c 1 -i 3 -a 1 -x {0.0 5.0 2 ------- null}
h -t 0.29328 -s 0 -d 1 -p tcp -e 1040 -c 1 -i 3 -a 1 -x {0.0 5.0 -1 ------- null}
r -t 0.30328 -s 0 -d 1 -p tcp -e 1040 -c 1 -i 2 -a 1 -x {0.0 5.0 1 ------- null}
+ -t 0.30328 -s 1 -d 4 -p tcp -e 1040 -c 1 -i 2 -a 1 -x {0.0 5.0 1 ------- null}
- -t 0.30328 -s 1 -d 4 -p tcp -e 1040 -c 1 -i 2 -a 1 -x {0.0 5.0 1 ------- null}
h -t 0.30328 -s 1 -d 4 -p tcp -e 1040 -c 1 -i 2 -a 1 -x {0.0 5.0 -1 ------- null}
r -t 0.331013333333333 -s 0 -d 1 -p tcp -e 1040 -c 1 -i 3 -a 1 -x {0.0 5.0 2 ------- null}
+ -t 0.331013333333333 -s 1 -d 4 -p tcp -e 1040 -c 1 -i 3 -a 1 -x {0.0 5.0 2 ------- null}
- -t 0.331013333333333 -s 1 -d 4 -p tcp -e 1040 -c 1 -i 3 -a 1 -x {0.0 5.0 2 ------- null}
h -t 0.331013333333333 -s 1 -d 4 -p tcp -e 1040 -c 1 -i 3 -a 1 -x {0.0 5.0 -1 ------- null}
r -t 0.341013333333333 -s 1 -d 4 -p tcp -e 1040 -c 1 -i 2 -a 1 -x {0.0 5.0 1 ------- null}
+ -t 0.341013333333333 -s 4 -d 5 -p tcp -e 1040 -c 1 -i 2 -a 1 -x {0.0 5.0 1 ------- null}
- -t 0.341013333333333 -s 4 -d 5 -p tcp -e 1040 -c 1 -i 2 -a 1 -x {0.0 5.0 1 ------- null}
h -t 0.341013333333333 -s 4 -d 5 -p tcp -e 1040 -c 1 -i 2 -a 1 -x {0.0 5.0 -1 ------- null}
r -t 0.367653333333333 -s 4 -d 5 -p tcp -e 1040 -c 1 -i 2 -a 1 -x {0.0 5.0 1 ------- null}
r -t 0.368746666666667 -s 1 -d 4 -p tcp -e 1040 -c 1 -i 3 -a 1 -x {0.0 5.0 2 ------- null}
+ -t 0.368746666666667 -s 4 -d 5 -p tcp -e 1040 -c 1 -i 3 -a 1 -x {0.0 5.0 2 ------- null}
- -t 0.368746666666667 -s 4 -d 5 -p tcp -e 1040 -c 1 -i 3 -a 1 -x {0.0 5.0 2 ------- null}
h -t 0.368746666666667 -s 4 -d 5 -p tcp -e 1040 -c 1 -i 3 -a 1 -x {0.0 5.0 -1 ------- null}
r -t 0.395386666666667 -s 4 -d 5 -p tcp -e 1040 -c 1 -i 3 -a 1 -x {0.0 5.0 2 ------- null}
+ -t 0.395386666666667 -s 5 -d 4 -p ack -e 40 -c 1 -i 4 -a 1 -x {5.0 0.0 2 ------- null}
- -t 0.395386666666667 -s 5 -d 4 -p ack -e 40 -c 1 -i 4 -a 1 -x {5.0 0.0 2 ------- null}
h -t 0.395386666666667 -s 5 -d 4 -p ack -e 40 -c 1 -i 4 -a 1 -x {5.0 0.0 -1 ------- null}
r -t 0.406026666666667 -s 5 -d 4 -p ack -e 40 -c 1 -i 4 -a 1 -x {5.0 0.0 2 ------- null}
+ -t 0.406026666666667 -s 4 -d 1 -p ack -e 40 -c 1 -i 4 -a 1 -x {5.0 0.0 2 ------- null}
- -t 0.406026666666667 -s 4 -d 1 -p ack -e 40 -c 1 -i 4 -a 1 -x {5.0 0.0 2 ------- null}
h -t 0.406026666666667 -s 4 -d 1 -p ack -e 40 -c 1 -i 4 -a 1 -x {5.0 0.0 -1 ------- null}
r -t 0.417093333333333 -s 4 -d 1 -p ack -e 40 -c 1 -i 4 -a 1 -x {5.0 0.0 2 ------- null}
+ -t 0.417093333333333 -s 1 -d 0 -p ack -e 40 -c 1 -i 4 -a 1 -x {5.0 0.0 2 ------- null}
- -t 0.417093333333333 -s 1 -d 0 -p ack -e 40 -c 1 -i 4 -a 1 -x {5.0 0.0 2 ------- null}
h -t 0.417093333333333 -s 1 -d 0 -p ack -e 40 -c 1 -i 4 -a 1 -x {5.0 0.0 -1 ------- null}
r -t 0.42816 -s 1 -d 0 -p ack -e 40 -c 1 -i 4 -a 1 -x {5.0 0.0 2 ------- null}
+ -t 0.42816 -s 0 -d 1 -p tcp -e 1040 -c 1 -i 5 -a 1 -x {0.0 5.0 3 ------- null}
- -t 0.42816 -s 0 -d 1 -p tcp -e 1040 -c 1 -i 5 -a 1 -x {0.0 5.0 3 ------- null}
h -t 0.42816 -s 0 -d 1 -p tcp -e 1040 -c 1 -i 5 -a 1 -x {0.0 5.0 -1 ------- null}
+ -t 0.42816 -s 0 -d 1 -p tcp -e 1040 -c 1 -i 6 -a 1 -x {0.0 5.0 4 ------- null}
+ -t 0.42816 -s 0 -d 1 -p tcp -e 1040 -c 1 -i 7 -a 1 -x {0.0 5.0 5 ------- null}
- -t 0.455893333333333 -s 0 -d 1 -p tcp -e 1040 -c 1 -i 6 -a 1 -x {0.0 5.0 4 ------- null}
h -t 0.455893333333333 -s 0 -d 1 -p tcp -e 1040 -c 1 -i 6 -a 1 -x {0.0 5.0 -1 ------- null}
r -t 0.465893333333333 -s 0 -d 1 -p tcp -e 1040 -c 1 -i 5 -a 1 -x {0.0 5.0 3 ------- null}
+ -t 0.465893333333333 -s 1 -d 4 -p tcp -e 1040 -c 1 -i 5 -a 1 -x {0.0 5.0 3 ------- null}
- -t 0.465893333333333 -s 1 -d 4 -p tcp -e 1040 -c 1 -i 5 -a 1 -x {0.0 5.0 3 ------- null}
h -t 0.465893333333333 -s 1 -d 4 -p tcp -e 1040 -c 1 -i 5 -a 1 -x {0.0 5.0 -1 ------- null}
- -t 0.483626666666667 -s 0 -d 1 -p tcp -e 1040 -c 1 -i 7 -a 1 -x {0.0 5.0 5 ------- null}
h -t 0.483626666666667 -s 0 -d 1 -p tcp -e 1040 -c 1 -i 7 -a 1 -x {0.0 5.0 -1 ------- null}
r -t 0.493626666666667 -s 0 -d 1 -p tcp -e 1040 -c 1 -i 6 -a 1 -x {0.0 5.0 4 ------- null}
+ -t 0.493626666666667 -s 1 -d 4 -p tcp -e 1040 -c 1 -i 6 -a 1 -x {0.0 5.0 4 ------- null}
- -t 0.493626666666667 -s 1 -d 4 -p tcp -e 1040 -c 1 -i 6 -a 1 -x {0.0 5.0 4 ------- null}
h -t 0.493626666666667 -s 1 -d 4 -p tcp -e 1040 -c 1 -i 6 -a 1 -x {0.0 5.0 -1 ------- null}
r -t 0.503626666666667 -s 1 -d 4 -p tcp -e 1040 -c 1 -i 5 -a 1 -x {0.0 5.0 3 ------- null}
+ -t 0.503626666666667 -s 4 -d 5 -p tcp -e 1040 -c 1 -i 5 -a 1 -x {0.0 5.0 3 ------- null}
- -t 0.503626666666667 -s 4 -d 5 -p tcp -e 1040 -c 1 -i 5 -a 1 -x {0.0 5.0 3 ------- null}
h -t 0.503626666666667 -s 4 -d 5 -p tcp -e 1040 -c 1 -i 5 -a 1 -x {0.0 5.0 -1 ------- null}
r -t 0.52136 -s 0 -d 1 -p tcp -e 1040 -c 1 -i 7 -a 1 -x {0.0 5.0 5 ------- null}
+ -t 0.52136 -s 1 -d 4 -p tcp -e 1040 -c 1 -i 7 -a 1 -x {0.0 5.0 5 ------- null}
- -t 0.52136 -s 1 -d 4 -p tcp -e 1040 -c 1 -i 7 -a 1 -x {0.0 5.0 5 ------- null}
h -t 0.52136 -s 1 -d 4 -p tcp -e 1040 -c 1 -i 7 -a 1 -x {0.0 5.0 -1 ------- null}
r -t 0.530266666666667 -s 4 -d 5 -p tcp -e 1040 -c 1 -i 5 -a 1 -x {0.0 5.0 3 ------- null}
r -t 0.53136 -s 1 -d 4 -p tcp -e 1040 -c 1 -i 6 -a 1 -x {0.0 5.0 4 ------- null}
+ -t 0.53136 -s 4 -d 5 -p tcp -e 1040 -c 1 -i 6 -a 1 -x {0.0 5.0 4 ------- null}
- -t 0.53136 -s 4 -d 5 -p tcp -e 1040 -c 1 -i 6 -a 1 -x {0.0 5.0 4 ------- null}
h -t 0.53136 -s 4 -d 5 -p tcp -e 1040 -c 1 -i 6 -a 1 -x {0.0 5.0 -1 ------- null}
r -t 0.558 -s 4 -d 5 -p tcp -e 1040 -c 1 -i 6 -a 1 -x {0.0 5.0 4 ------- null}
+ -t 0.558 -s 5 -d 4 -p ack -e 40 -c 1 -i 8 -a 1 -x {5.0 0.0 4 ------- null}
- -t 0.558 -s 5 -d 4 -p ack -e 40 -c 1 -i 8 -a 1 -x {5.0 0.0 4 ------- null}
h -t 0.558 -s 5 -d 4 -p ack -e 40 -c 1 -i 8 -a 1 -x {5.0 0.0 -1 ------- null}
r -t 0.559093333333333 -s 1 -d 4 -p tcp -e 1040 -c 1 -i 7 -a 1 -x {0.0 5.0 5 ------- null}
+ -t 0.559093333333333 -s 4 -d 5 -p tcp -e 1040 -c 1 -i 7 -a 1 -x {0.0 5.0 5 ------- null}
- -t 0.559093333333333 -s 4 -d 5 -p tcp -e 1040 -c 1 -i 7 -a 1 -x {0.0 5.0 5 ------- null}
h -t 0.559093333333333 -s 4 -d 5 -p tcp -e 1040 -c 1 -i 7 -a 1 -x {0.0 5.0 -1 ------- null}
r -t 0.56864 -s 5 -d 4 -p ack -e 40 -c 1 -i 8 -a 1 -x {5.0 0.0 4 ------- null}
+ -t 0.56864 -s 4 -d 1 -p ack -e 40 -c 1 -i 8 -a 1 -x {5.0 0.0 4 ------- null}
- -t 0.56864 -s 4 -d 1 -p ack -e 40 -c 1 -i 8 -a 1 -x {5.0 0.0 4 ------- null}
h -t 0.56864 -s 4 -d 1 -p ack -e 40 -c 1 -i 8 -a 1 -x {5.0 0.0 -1 ------- null}
r -t 0.579706666666667 -s 4 -d 1 -p ack -e 40 -c 1 -i 8 -a 1 -x {5.0 0.0 4 ------- null}
+ -t 0.579706666666667 -s 1 -d 0 -p ack -e 40 -c 1 -i 8 -a 1 -x {5.0 0.0 4 ------- null}
- -t 0.579706666666667 -s 1 -d 0 -p ack -e 40 -c 1 -i 8 -a 1 -x {5.0 0.0 4 ------- null}
h -t 0.579706666666667 -s 1 -d 0 -p ack -e 40 -c 1 -i 8 -a 1 -x {5.0 0.0 -1 ------- null}
r -t 0.585733333333333 -s 4 -d 5 -p tcp -e 1040 -c 1 -i 7 -a 1 -x {0.0 5.0 5 ------- null}
r -t 0.590773333333333 -s 1 -d 0 -p ack -e 40 -c 1 -i 8 -a 1 -x {5.0 0.0 4 ------- null}
+ -t 0.590773333333333 -s 0 -d 1 -p tcp -e 1040 -c 1 -i 9 -a 1 -x {0.0 5.0 6 ------- null}
- -t 0.590773333333333 -s 0 -d 1 -p tcp -e 1040 -c 1 -i 9 -a 1 -x {0.0 5.0 6 ------- null}
h -t 0.590773333333333 -s 0 -d 1 -p tcp -e 1040 -c 1 -i 9 -a 1 -x {0.0 5.0 -1 ------- null}
+ -t 0.590773333333333 -s 0 -d 1 -p tcp -e 1040 -c 1 -i 10 -a 1 -x {0.0 5.0 7 ------- null}
+ -t 0.590773333333333 -s 0 -d 1 -p tcp -e 1040 -c 1 -i 11 -a 1 -x {0.0 5.0 8 ------- null}
- -t 0.618506666666667 -s 0 -d 1 -p tcp -e 1040 -c 1 -i 10 -a 1 -x {0.0 5.0 7 ------- null}
h -t 0.618506666666667 -s 0 -d 1 -p tcp -e 1040 -c 1 -i 10 -a 1 -x {0.0 5.0 -1 ------- null}
r -t 0.628506666666667 -s 0 -d 1 -p tcp -e 1040 -c 1 -i 9 -a 1 -x {0.0 5.0 6 ------- null}
+ -t 0.628506666666667 -s 1 -d 4 -p tcp -e 1040 -c 1 -i 9 -a 1 -x {0.0 5.0 6 ------- null}
- -t 0.628506666666667 -s 1 -d 4 -p tcp -e 1040 -c 1 -i 9 -a 1 -x {0.0 5.0 6 ------- null}
h -t 0.628506666666667 -s 1 -d 4 -p tcp -e 1040 -c 1 -i 9 -a 1 -x {0.0 5.0 -1 ------- null}
- -t 0.64624 -s 0 -d 1 -p tcp -e 1040 -c 1 -i 11 -a 1 -x {0.0 5.0 8 ------- null}
h -t 0.64624 -s 0 -d 1 -p tcp -e 1040 -c 1 -i 11 -a 1 -x {0.0 5.0 -1 ------- null}
r -t 0.65624 -s 0 -d 1 -p tcp -e 1040 -c 1 -i 10 -a 1 -x {0.0 5.0 7 ------- null}
+ -t 0.65624 -s 1 -d 4 -p tcp -e 1040 -c 1 -i 10 -a 1 -x {0.0 5.0 7 ------- null}
- -t 0.65624 -s 1 -d 4 -p tcp -e 1040 -c 1 -i 10 -a 1 -x {0.0 5.0 7 ------- null}
h -t 0.65624 -s 1 -d 4 -p tcp -e 1040 -c 1 -i 10 -a 1 -x {0.0 5.0 -1 ------- null}
r -t 0.66624 -s 1 -d 4 -p tcp -e 1040 -c 1 -i 9 -a 1 -x {0.0 5.0 6 ------- null}
+ -t 0.66624 -s 4 -d 5 -p tcp -e 1040 -c 1 -i 9 -a 1 -x {0.0 5.0 6 ------- null}
- -t 0.66624 -s 4 -d 5 -p tcp -e 1040 -c 1 -i 9 -a 1 -x {0.0 5.0 6 ------- null}
h -t 0.66624 -s 4 -d 5 -p tcp -e 1040 -c 1 -i 9 -a 1 -x {0.0 5.0 -1 ------- null}
r -t 0.683973333333333 -s 0 -d 1 -p tcp -e 1040 -c 1 -i 11 -a 1 -x {0.0 5.0 8 ------- null}
+ -t 0.683973333333333 -s 1 -d 4 -p tcp -e 1040 -c 1 -i 11 -a 1 -x {0.0 5.0 8 ------- null}
- -t 0.683973333333333 -s 1 -d 4 -p tcp -e 1040 -c 1 -i 11 -a 1 -x {0.0 5.0 8 ------- null}
h -t 0.683973333333333 -s 1 -d 4 -p tcp -e 1040 -c 1 -i 11 -a 1 -x {0.0 5.0 -1 ------- null}
+ -t 0.685733333333333 -s 5 -d 4 -p ack -e 40 -c 1 -i 12 -a 1 -x {5.0 0.0 5 ------- null}
- -t 0.685733333333333 -s 5 -d 4 -p ack -e 40 -c 1 -i 12 -a 1 -x {5.0 0.0 5 ------- null}
h -t 0.685733333333333 -s 5 -d 4 -p ack -e 40 -c 1 -i 12 -a 1 -x {5.0 0.0 -1 ------- null}
r -t 0.69288 -s 4 -d 5 -p tcp -e 1040 -c 1 -i 9 -a 1 -x {0.0 5.0 6 ------- null}
r -t 0.693973333333333 -s 1 -d 4 -p tcp -e 1040 -c 1 -i 10 -a 1 -x {0.0 5.0 7 ------- null}
+ -t 0.693973333333333 -s 4 -d 5 -p tcp -e 1040 -c 1 -i 10 -a 1 -x {0.0 5.0 7 ------- null}
- -t 0.693973333333333 -s 4 -d 5 -p tcp -e 1040 -c 1 -i 10 -a 1 -x {0.0 5.0 7 ------- null}
h -t 0.693973333333333 -s 4 -d 5 -p tcp -e 1040 -c 1 -i 10 -a 1 -x {0.0 5.0 -1 ------- null}
r -t 0.696373333333333 -s 5 -d 4 -p ack -e 40 -c 1 -i 12 -a 1 -x {5.0 0.0 5 ------- null}
+ -t 0.696373333333333 -s 4 -d 1 -p ack -e 40 -c 1 -i 12 -a 1 -x {5.0 0.0 5 ------- null}
- -t 0.696373333333333 -s 4 -d 1 -p ack -e 40 -c 1 -i 12 -a 1 -x {5.0 0.0 5 ------- null}
h -t 0.696373333333333 -s 4 -d 1 -p ack -e 40 -c 1 -i 12 -a 1 -x {5.0 0.0 -1 ------- null}
r -t 0.70744 -s 4 -d 1 -p ack -e 40 -c 1 -i 12 -a 1 -x {5.0 0.0 5 ------- null}
+ -t 0.70744 -s 1 -d 0 -p ack -e 40 -c 1 -i 12 -a 1 -x {5.0 0.0 5 ------- null}
- -t 0.70744 -s 1 -d 0 -p ack -e 40 -c 1 -i 12 -a 1 -x {5.0 0.0 5 ------- null}
h -t 0.70744 -s 1 -d 0 -p ack -e 40 -c 1 -i 12 -a 1 -x {5.0 0.0 -1 ------- null}
r -t 0.718506666666667 -s 1 -d 0 -p ack -e 40 -c 1 -i 12 -a 1 -x {5.0 0.0 5 ------- null}
+ -t 0.718506666666667 -s 0 -d 1 -p tcp -e 1040 -c 1 -i 13 -a 1 -x {0.0 5.0 9 ------- null}
- -t 0.718506666666667 -s 0 -d 1 -p tcp -e 1040 -c 1 -i 13 -a 1 -x {0.0 5.0 9 ------- null}
h -t 0.718506666666667 -s 0 -d 1 -p tcp -e 1040 -c 1 -i 13 -a 1 -x {0.0 5.0 -1 ------- null}
+ -t 0.718506666666667 -s 0 -d 1 -p tcp -e 1040 -c 1 -i 14 -a 1 -x {0.0 5.0 10 ------- null}
r -t 0.720613333333333 -s 4 -d 5 -p tcp -e 1040 -c 1 -i 10 -a 1 -x {0.0 5.0 7 ------- null}
+ -t 0.720613333333333 -s 5 -d 4 -p ack -e 40 -c 1 -i 15 -a 1 -x {5.0 0.0 7 ------- null}
- -t 0.720613333333333 -s 5 -d 4 -p ack -e 40 -c 1 -i 15 -a 1 -x {5.0 0.0 7 ------- null}
h -t 0.720613333333333 -s 5 -d 4 -p ack -e 40 -c 1 -i 15 -a 1 -x {5.0 0.0 -1 ------- null}
r -t 0.721706666666667 -s 1 -d 4 -p tcp -e 1040 -c 1 -i 11 -a 1 -x {0.0 5.0 8 ------- null}
+ -t 0.721706666666667 -s 4 -d 5 -p tcp -e 1040 -c 1 -i 11 -a 1 -x {0.0 5.0 8 ------- null}
- -t 0.721706666666667 -s 4 -d 5 -p tcp -e 1040 -c 1 -i 11 -a 1 -x {0.0 5.0 8 ------- null}
h -t 0.721706666666667 -s 4 -d 5 -p tcp -e 1040 -c 1 -i 11 -a 1 -x {0.0 5.0 -1 ------- null}
r -t 0.731253333333333 -s 5 -d 4 -p ack -e 40 -c 1 -i 15 -a 1 -x {5.0 0.0 7 ------- null}
+ -t 0.731253333333333 -s 4 -d 1 -p ack -e 40 -c 1 -i 15 -a 1 -x {5.0 0.0 7 ------- null}
- -t 0.731253333333333 -s 4 -d 1 -p ack -e 40 -c 1 -i 15 -a 1 -x {5.0 0.0 7 ------- null}
h -t 0.731253333333333 -s 4 -d 1 -p ack -e 40 -c 1 -i 15 -a 1 -x {5.0 0.0 -1 ------- null}
r -t 0.74232 -s 4 -d 1 -p ack -e 40 -c 1 -i 15 -a 1 -x {5.0 0.0 7 ------- null}
+ -t 0.74232 -s 1 -d 0 -p ack -e 40 -c 1 -i 15 -a 1 -x {5.0 0.0 7 ------- null}
- -t 0.74232 -s 1 -d 0 -p ack -e 40 -c 1 -i 15 -a 1 -x {5.0 0.0 7 ------- null}
h -t 0.74232 -s 1 -d 0 -p ack -e 40 -c 1 -i 15 -a 1 -x {5.0 0.0 -1 ------- null}
- -t 0.74624 -s 0 -d 1 -p tcp -e 1040 -c 1 -i 14 -a 1 -x {0.0 5.0 10 ------- null}
h -t 0.74624 -s 0 -d 1 -p tcp -e 1040 -c 1 -i 14 -a 1 -x {0.0 5.0 -1 ------- null}
r -t 0.748346666666667 -s 4 -d 5 -p tcp -e 1040 -c 1 -i 11 -a 1 -x {0.0 5.0 8 ------- null}
r -t 0.753386666666667 -s 1 -d 0 -p ack -e 40 -c 1 -i 15 -a 1 -x {5.0 0.0 7 ------- null}
+ -t 0.753386666666667 -s 0 -d 1 -p tcp -e 1040 -c 1 -i 16 -a 1 -x {0.0 5.0 11 ------- null}
+ -t 0.753386666666667 -s 0 -d 1 -p tcp -e 1040 -c 1 -i 17 -a 1 -x {0.0 5.0 12 ------- null}
+ -t 0.753386666666667 -s 0 -d 1 -p tcp -e 1040 -c 1 -i 18 -a 1 -x {0.0 5.0 13 ------- null}
r -t 0.75624 -s 0 -d 1 -p tcp -e 1040 -c 1 -i 13 -a 1 -x {0.0 5.0 9 ------- null}
+ -t 0.75624 -s 1 -d 4 -p tcp -e 1040 -c 1 -i 13 -a 1 -x {0.0 5.0 9 ------- null}
- -t 0.75624 -s 1 -d 4 -p tcp -e 1040 -c 1 -i 13 -a 1 -x {0.0 5.0 9 ------- null}
h -t 0.75624 -s 1 -d 4 -p tcp -e 1040 -c 1 -i 13 -a 1 -x {0.0 5.0 -1 ------- null}
- -t 0.773973333333333 -s 0 -d 1 -p tcp -e 1040 -c 1 -i 16 -a 1 -x {0.0 5.0 11 ------- null}
h -t 0.773973333333333 -s 0 -d 1 -p tcp -e 1040 -c 1 -i 16 -a 1 -x {0.0 5.0 -1 ------- null}
r -t 0.783973333333333 -s 0 -d 1 -p tcp -e 1040 -c 1 -i 14 -a 1 -x {0.0 5.0 10 ------- null}
+ -t 0.783973333333333 -s 1 -d 4 -p tcp -e 1040 -c 1 -i 14 -a 1 -x {0.0 5.0 10 ------- null}
- -t 0.783973333333333 -s 1 -d 4 -p tcp -e 1040 -c 1 -i 14 -a 1 -x {0.0 5.0 10 ------- null}
h -t 0.783973333333333 -s 1 -d 4 -p tcp -e 1040 -c 1 -i 14 -a 1 -x {0.0 5.0 -1 ------- null}
r -t 0.793973333333333 -s 1 -d 4 -p tcp -e 1040 -c 1 -i 13 -a 1 -x {0.0 5.0 9 ------- null}
+ -t 0.793973333333333 -s 4 -d 5 -p tcp -e 1040 -c 1 -i 13 -a 1 -x {0.0 5.0 9 ------- null}
- -t 0.793973333333333 -s 4 -d 5 -p tcp -e 1040 -c 1 -i 13 -a 1 -x {0.0 5.0 9 ------- null}
h -t 0.793973333333333 -s 4 -d 5 -p tcp -e 1040 -c 1 -i 13 -a 1 -x {0.0 5.0 -1 ------- null}
- -t 0.801706666666667 -s 0 -d 1 -p tcp -e 1040 -c 1 -i 17 -a 1 -x {0.0 5.0 12 ------- null}
h -t 0.801706666666667 -s 0 -d 1 -p tcp -e 1040 -c 1 -i 17 -a 1 -x {0.0 5.0 -1 ------- null}
r -t 0.811706666666667 -s 0 -d 1 -p tcp -e 1040 -c 1 -i 16 -a 1 -x {0.0 5.0 11 ------- null}
+ -t 0.811706666666667 -s 1 -d 4 -p tcp -e 1040 -c 1 -i 16 -a 1 -x {0.0 5.0 11 ------- null}
- -t 0.811706666666667 -s 1 -d 4 -p tcp -e 1040 -c 1 -i 16 -a 1 -x {0.0 5.0 11 ------- null}
h -t 0.811706666666667 -s 1 -d 4 -p tcp -e 1040 -c 1 -i 16 -a 1 -x {0.0 5.0 -1 ------- null}
r -t 0.820613333333333 -s 4 -d 5 -p tcp -e 1040 -c 1 -i 13 -a 1 -x {0.0 5.0 9 ------- null}
+ -t 0.820613333333333 -s 5 -d 4 -p ack -e 40 -c 1 -i 19 -a 1 -x {5.0 0.0 9 ------- null}
- -t 0.820613333333333 -s 5 -d 4 -p ack -e 40 -c 1 -i 19 -a 1 -x {5.0 0.0 9 ------- null}
h -t 0.820613333333333 -s 5 -d 4 -p ack -e 40 -c 1 -i 19 -a 1 -x {5.0 0.0 -1 ------- null}
r -t 0.821706666666667 -s 1 -d 4 -p tcp -e 1040 -c 1 -i 14 -a 1 -x {0.0 5.0 10 ------- null}
+ -t 0.821706666666667 -s 4 -d 5 -p tcp -e 1040 -c 1 -i 14 -a 1 -x {0.0 5.0 10 ------- null}
- -t 0.821706666666667 -s 4 -d 5 -p tcp -e 1040 -c 1 -i 14 -a 1 -x {0.0 5.0 10 ------- null}
h -t 0.821706666666667 -s 4 -d 5 -p tcp -e 1040 -c 1 -i 14 -a 1 -x {0.0 5.0 -1 ------- null}
- -t 0.82944 -s 0 -d 1 -p tcp -e 1040 -c 1 -i 18 -a 1 -x {0.0 5.0 13 ------- null}
h -t 0.82944 -s 0 -d 1 -p tcp -e 1040 -c 1 -i 18 -a 1 -x {0.0 5.0 -1 ------- null}
r -t 0.831253333333333 -s 5 -d 4 -p ack -e 40 -c 1 -i 19 -a 1 -x {5.0 0.0 9 ------- null}
+ -t 0.831253333333333 -s 4 -d 1 -p ack -e 40 -c 1 -i 19 -a 1 -x {5.0 0.0 9 ------- null}
- -t 0.831253333333333 -s 4 -d 1 -p ack -e 40 -c 1 -i 19 -a 1 -x {5.0 0.0 9 ------- null}
h -t 0.831253333333333 -s 4 -d 1 -p ack -e 40 -c 1 -i 19 -a 1 -x {5.0 0.0 -1 ------- null}
r -t 0.83944 -s 0 -d 1 -p tcp -e 1040 -c 1 -i 17 -a 1 -x {0.0 5.0 12 ------- null}
+ -t 0.83944 -s 1 -d 4 -p tcp -e 1040 -c 1 -i 17 -a 1 -x {0.0 5.0 12 ------- null}
- -t 0.83944 -s 1 -d 4 -p tcp -e 1040 -c 1 -i 17 -a 1 -x {0.0 5.0 12 ------- null}
h -t 0.83944 -s 1 -d 4 -p tcp -e 1040 -c 1 -i 17 -a 1 -x {0.0 5.0 -1 ------- null}
r -t 0.84232 -s 4 -d 1 -p ack -e 40 -c 1 -i 19 -a 1 -x {5.0 0.0 9 ------- null}
+ -t 0.84232 -s 1 -d 0 -p ack -e 40 -c 1 -i 19 -a 1 -x {5.0 0.0 9 ------- null}
- -t 0.84232 -s 1 -d 0 -p ack -e 40 -c 1 -i 19 -a 1 -x {5.0 0.0 9 ------- null}
h -t 0.84232 -s 1 -d 0 -p ack -e 40 -c 1 -i 19 -a 1 -x {5.0 0.0 -1 ------- null}
r -t 0.848346666666667 -s 4 -d 5 -p tcp -e 1040 -c 1 -i 14 -a 1 -x {0.0 5.0 10 ------- null}
r -t 0.84944 -s 1 -d 4 -p tcp -e 1040 -c 1 -i 16 -a 1 -x {0.0 5.0 11 ------- null}
+ -t 0.84944 -s 4 -d 5 -p tcp -e 1040 -c 1 -i 16 -a 1 -x {0.0 5.0 11 ------- null}
- -t 0.84944 -s 4 -d 5 -p tcp -e 1040 -c 1 -i 16 -a 1 -x {0.0 5.0 11 ------- null}
h -t 0.84944 -s 4 -d 5 -p tcp -e 1040 -c 1 -i 16 -a 1 -x {0.0 5.0 -1 ------- null}
r -t 0.853386666666667 -s 1 -d 0 -p ack -e 40 -c 1 -i 19 -a 1 -x {5.0 0.0 9 ------- null}
+ -t 0.853386666666667 -s 0 -d 1 -p tcp -e 1040 -c 1 -i 20 -a 1 -x {0.0 5.0 14 ------- null}
+ -t 0.853386666666667 -s 0 -d 1 -p tcp -e 1040 -c 1 -i 21 -a 1 -x {0.0 5.0 15 ------- null}
+ -t 0.853386666666667 -s 0 -d 1 -p tcp -e 1040 -c 1 -i 22 -a 1 -x {0.0 5.0 16 ------- null}
- -t 0.857173333333334 -s 0 -d 1 -p tcp -e 1040 -c 1 -i 20 -a 1 -x {0.0 5.0 14 ------- null}
h -t 0.857173333333334 -s 0 -d 1 -p tcp -e 1040 -c 1 -i 20 -a 1 -x {0.0 5.0 -1 ------- null}
r -t 0.867173333333333 -s 0 -d 1 -p tcp -e 1040 -c 1 -i 18 -a 1 -x {0.0 5.0 13 ------- null}
+ -t 0.867173333333333 -s 1 -d 4 -p tcp -e 1040 -c 1 -i 18 -a 1 -x {0.0 5.0 13 ------- null}
- -t 0.867173333333333 -s 1 -d 4 -p tcp -e 1040 -c 1 -i 18 -a 1 -x {0.0 5.0 13 ------- null}
h -t 0.867173333333333 -s 1 -d 4 -p tcp -e 1040 -c 1 -i 18 -a 1 -x {0.0 5.0 -1 ------- null}
r -t 0.87608 -s 4 -d 5 -p tcp -e 1040 -c 1 -i 16 -a 1 -x {0.0 5.0 11 ------- null}
+ -t 0.87608 -s 5 -d 4 -p ack -e 40 -c 1 -i 23 -a 1 -x {5.0 0.0 11 ------- null}
- -t 0.87608 -s 5 -d 4 -p ack -e 40 -c 1 -i 23 -a 1 -x {5.0 0.0 11 ------- null}
h -t 0.87608 -s 5 -d 4 -p ack -e 40 -c 1 -i 23 -a 1 -x {5.0 0.0 -1 ------- null}
r -t 0.877173333333333 -s 1 -d 4 -p tcp -e 1040 -c 1 -i 17 -a 1 -x {0.0 5.0 12 ------- null}
+ -t 0.877173333333333 -s 4 -d 5 -p tcp -e 1040 -c 1 -i 17 -a 1 -x {0.0 5.0 12 ------- null}
- -t 0.877173333333333 -s 4 -d 5 -p tcp -e 1040 -c 1 -i 17 -a 1 -x {0.0 5.0 12 ------- null}
h -t 0.877173333333333 -s 4 -d 5 -p tcp -e 1040 -c 1 -i 17 -a 1 -x {0.0 5.0 -1 ------- null}
- -t 0.884906666666667 -s 0 -d 1 -p tcp -e 1040 -c 1 -i 21 -a 1 -x {0.0 5.0 15 ------- null}
h -t 0.884906666666667 -s 0 -d 1 -p tcp -e 1040 -c 1 -i 21 -a 1 -x {0.0 5.0 -1 ------- null}
r -t 0.88672 -s 5 -d 4 -p ack -e 40 -c 1 -i 23 -a 1 -x {5.0 0.0 11 ------- null}
+ -t 0.88672 -s 4 -d 1 -p ack -e 40 -c 1 -i 23 -a 1 -x {5.0 0.0 11 ------- null}
- -t 0.88672 -s 4 -d 1 -p ack -e 40 -c 1 -i 23 -a 1 -x {5.0 0.0 11 ------- null}
h -t 0.88672 -s 4 -d 1 -p ack -e 40 -c 1 -i 23 -a 1 -x {5.0 0.0 -1 ------- null}
r -t 0.894906666666667 -s 0 -d 1 -p tcp -e 1040 -c 1 -i 20 -a 1 -x {0.0 5.0 14 ------- null}
+ -t 0.894906666666667 -s 1 -d 4 -p tcp -e 1040 -c 1 -i 20 -a 1 -x {0.0 5.0 14 ------- null}
- -t 0.894906666666667 -s 1 -d 4 -p tcp -e 1040 -c 1 -i 20 -a 1 -x {0.0 5.0 14 ------- null}
h -t 0.894906666666667 -s 1 -d 4 -p tcp -e 1040 -c 1 -i 20 -a 1 -x {0.0 5.0 -1 ------- null}
r -t 0.897786666666667 -s 4 -d 1 -p ack -e 40 -c 1 -i 23 -a 1 -x {5.0 0.0 11 ------- null}
+ -t 0.897786666666667 -s 1 -d 0 -p ack -e 40 -c 1 -i 23 -a 1 -x {5.0 0.0 11 ------- null}
- -t 0.897786666666667 -s 1 -d 0 -p ack -e 40 -c 1 -i 23 -a 1 -x {5.0 0.0 11 ------- null}
h -t 0.897786666666667 -s 1 -d 0 -p ack -e 40 -c 1 -i 23 -a 1 -x {5.0 0.0 -1 ------- null}
r -t 0.903813333333333 -s 4 -d 5 -p tcp -e 1040 -c 1 -i 17 -a 1 -x {0.0 5.0 12 ------- null}
r -t 0.904906666666667 -s 1 -d 4 -p tcp -e 1040 -c 1 -i 18 -a 1 -x {0.0 5.0 13 ------- null}
+ -t 0.904906666666667 -s 4 -d 5 -p tcp -e 1040 -c 1 -i 18 -a 1 -x {0.0 5.0 13 ------- null}
- -t 0.904906666666667 -s 4 -d 5 -p tcp -e 1040 -c 1 -i 18 -a 1 -x {0.0 5.0 13 ------- null}
h -t 0.904906666666667 -s 4 -d 5 -p tcp -e 1040 -c 1 -i 18 -a 1 -x {0.0 5.0 -1 ------- null}
r -t 0.908853333333333 -s 1 -d 0 -p ack -e 40 -c 1 -i 23 -a 1 -x {5.0 0.0 11 ------- null}
+ -t 0.908853333333333 -s 0 -d 1 -p tcp -e 1040 -c 1 -i 24 -a 1 -x {0.0 5.0 17 ------- null}
+ -t 0.908853333333333 -s 0 -d 1 -p tcp -e 1040 -c 1 -i 25 -a 1 -x {0.0 5.0 18 ------- null}
+ -t 0.908853333333333 -s 0 -d 1 -p tcp -e 1040 -c 1 -i 26 -a 1 -x {0.0 5.0 19 ------- null}
- -t 0.91264 -s 0 -d 1 -p tcp -e 1040 -c 1 -i 22 -a 1 -x {0.0 5.0 16 ------- null}
h -t 0.91264 -s 0 -d 1 -p tcp -e 1040 -c 1 -i 22 -a 1 -x {0.0 5.0 -1 ------- null}
r -t 0.92264 -s 0 -d 1 -p tcp -e 1040 -c 1 -i 21 -a 1 -x {0.0 5.0 15 ------- null}
+ -t 0.92264 -s 1 -d 4 -p tcp -e 1040 -c 1 -i 21 -a 1 -x {0.0 5.0 15 ------- null}
- -t 0.92264 -s 1 -d 4 -p tcp -e 1040 -c 1 -i 21 -a 1 -x {0.0 5.0 15 ------- null}
h -t 0.92264 -s 1 -d 4 -p tcp -e 1040 -c 1 -i 21 -a 1 -x {0.0 5.0 -1 ------- null}
r -t 0.931546666666667 -s 4 -d 5 -p tcp -e 1040 -c 1 -i 18 -a 1 -x {0.0 5.0 13 ------- null}
+ -t 0.931546666666667 -s 5 -d 4 -p ack -e 40 -c 1 -i 27 -a 1 -x {5.0 0.0 13 ------- null}
- -t 0.931546666666667 -s 5 -d 4 -p ack -e 40 -c 1 -i 27 -a 1 -x {5.0 0.0 13 ------- null}
h -t 0.931546666666667 -s 5 -d 4 -p ack -e 40 -c 1 -i 27 -a 1 -x {5.0 0.0 -1 ------- null}
r -t 0.93264 -s 1 -d 4 -p tcp -e 1040 -c 1 -i 20 -a 1 -x {0.0 5.0 14 ------- null}
+ -t 0.93264 -s 4 -d 5 -p tcp -e 1040 -c 1 -i 20 -a 1 -x {0.0 5.0 14 ------- null}
- -t 0.93264 -s 4 -d 5 -p tcp -e 1040 -c 1 -i 20 -a 1 -x {0.0 5.0 14 ------- null}
h -t 0.93264 -s 4 -d 5 -p tcp -e 1040 -c 1 -i 20 -a 1 -x {0.0 5.0 -1 ------- null}
- -t 0.940373333333334 -s 0 -d 1 -p tcp -e 1040 -c 1 -i 24 -a 1 -x {0.0 5.0 17 ------- null}
h -t 0.940373333333334 -s 0 -d 1 -p tcp -e 1040 -c 1 -i 24 -a 1 -x {0.0 5.0 -1 ------- null}
r -t 0.942186666666667 -s 5 -d 4 -p ack -e 40 -c 1 -i 27 -a 1 -x {5.0 0.0 13 ------- null}
+ -t 0.942186666666667 -s 4 -d 1 -p ack -e 40 -c 1 -i 27 -a 1 -x {5.0 0.0 13 ------- null}
- -t 0.942186666666667 -s 4 -d 1 -p ack -e 40 -c 1 -i 27 -a 1 -x {5.0 0.0 13 ------- null}
h -t 0.942186666666667 -s 4 -d 1 -p ack -e 40 -c 1 -i 27 -a 1 -x {5.0 0.0 -1 ------- null}
r -t 0.950373333333334 -s 0 -d 1 -p tcp -e 1040 -c 1 -i 22 -a 1 -x {0.0 5.0 16 ------- null}
+ -t 0.950373333333334 -s 1 -d 4 -p tcp -e 1040 -c 1 -i 22 -a 1 -x {0.0 5.0 16 ------- null}
- -t 0.950373333333334 -s 1 -d 4 -p tcp -e 1040 -c 1 -i 22 -a 1 -x {0.0 5.0 16 ------- null}
h -t 0.950373333333334 -s 1 -d 4 -p tcp -e 1040 -c 1 -i 22 -a 1 -x {0.0 5.0 -1 ------- null}
r -t 0.953253333333333 -s 4 -d 1 -p ack -e 40 -c 1 -i 27 -a 1 -x {5.0 0.0 13 ------- null}
+ -t 0.953253333333333 -s 1 -d 0 -p ack -e 40 -c 1 -i 27 -a 1 -x {5.0 0.0 13 ------- null}
- -t 0.953253333333333 -s 1 -d 0 -p ack -e 40 -c 1 -i 27 -a 1 -x {5.0 0.0 13 ------- null}
h -t 0.953253333333333 -s 1 -d 0 -p ack -e 40 -c 1 -i 27 -a 1 -x {5.0 0.0 -1 ------- null}
r -t 0.95928 -s 4 -d 5 -p tcp -e 1040 -c 1 -i 20 -a 1 -x {0.0 5.0 14 ------- null}
r -t 0.960373333333334 -s 1 -d 4 -p tcp -e 1040 -c 1 -i 21 -a 1 -x {0.0 5.0 15 ------- null}
+ -t 0.960373333333334 -s 4 -d 5 -p tcp -e 1040 -c 1 -i 21 -a 1 -x {0.0 5.0 15 ------- null}
- -t 0.960373333333334 -s 4 -d 5 -p tcp -e 1040 -c 1 -i 21 -a 1 -x {0.0 5.0 15 ------- null}
h -t 0.960373333333334 -s 4 -d 5 -p tcp -e 1040 -c 1 -i 21 -a 1 -x {0.0 5.0 -1 ------- null}
r -t 0.96432 -s 1 -d 0 -p ack -e 40 -c 1 -i 27 -a 1 -x {5.0 0.0 13 ------- null}
+ -t 0.96432 -s 0 -d 1 -p tcp -e 1040 -c 1 -i 28 -a 1 -x {0.0 5.0 20 ------- null}
+ -t 0.96432 -s 0 -d 1 -p tcp -e 1040 -c 1 -i 29 -a 1 -x {0.0 5.0 21 ------- null}
+ -t 0.96432 -s 0 -d 1 -p tcp -e 1040 -c 1 -i 30 -a 1 -x {0.0 5.0 22 ------- null}
- -t 0.968106666666667 -s 0 -d 1 -p tcp -e 1040 -c 1 -i 25 -a 1 -x {0.0 5.0 18 ------- null}
h -t 0.968106666666667 -s 0 -d 1 -p tcp -e 1040 -c 1 -i 25 -a 1 -x {0.0 5.0 -1 ------- null}
r -t 0.978106666666667 -s 0 -d 1 -p tcp -e 1040 -c 1 -i 24 -a 1 -x {0.0 5.0 17 ------- null}
+ -t 0.978106666666667 -s 1 -d 4 -p tcp -e 1040 -c 1 -i 24 -a 1 -x {0.0 5.0 17 ------- null}
- -t 0.978106666666667 -s 1 -d 4 -p tcp -e 1040 -c 1 -i 24 -a 1 -x {0.0 5.0 17 ------- null}
h -t 0.978106666666667 -s 1 -d 4 -p tcp -e 1040 -c 1 -i 24 -a 1 -x {0.0 5.0 -1 ------- null}
r -t 0.987013333333334 -s 4 -d 5 -p tcp -e 1040 -c 1 -i 21 -a 1 -x {0.0 5.0 15 ------- null}
+ -t 0.987013333333334 -s 5 -d 4 -p ack -e 40 -c 1 -i 31 -a 1 -x {5.0 0.0 15 ------- null}
- -t 0.987013333333334 -s 5 -d 4 -p ack -e 40 -c 1 -i 31 -a 1 -x {5.0 0.0 15 ------- null}
h -t 0.987013333333334 -s 5 -d 4 -p ack -e 40 -c 1 -i 31 -a 1 -x {5.0 0.0 -1 ------- null}
r -t 0.988106666666667 -s 1 -d 4 -p tcp -e 1040 -c 1 -i 22 -a 1 -x {0.0 5.0 16 ------- null}
+ -t 0.988106666666667 -s 4 -d 5 -p tcp -e 1040 -c 1 -i 22 -a 1 -x {0.0 5.0 16 ------- null}
- -t 0.988106666666667 -s 4 -d 5 -p tcp -e 1040 -c 1 -i 22 -a 1 -x {0.0 5.0 16 ------- null}
h -t 0.988106666666667 -s 4 -d 5 -p tcp -e 1040 -c 1 -i 22 -a 1 -x {0.0 5.0 -1 ------- null}
- -t 0.995840000000001 -s 0 -d 1 -p tcp -e 1040 -c 1 -i 26 -a 1 -x {0.0 5.0 19 ------- null}
h -t 0.995840000000001 -s 0 -d 1 -p tcp -e 1040 -c 1 -i 26 -a 1 -x {0.0 5.0 -1 ------- null}
r -t 0.997653333333334 -s 5 -d 4 -p ack -e 40 -c 1 -i 31 -a 1 -x {5.0 0.0 15 ------- null}
+ -t 0.997653333333334 -s 4 -d 1 -p ack -e 40 -c 1 -i 31 -a 1 -x {5.0 0.0 15 ------- null}
- -t 0.997653333333334 -s 4 -d 1 -p ack -e 40 -c 1 -i 31 -a 1 -x {5.0 0.0 15 ------- null}
h -t 0.997653333333334 -s 4 -d 1 -p ack -e 40 -c 1 -i 31 -a 1 -x {5.0 0.0 -1 ------- null}
d -t 1 -s 4 -d 1 -p ack -e 40 -c 1 -i 31 -a 1 -x {5.0 0.0 15 ------- null}
l -t 1 -s 4 -d 1 -S DOWN
v -t 1 link-down 1 4 1
l -t 1 -s 4 -d 1 -S DOWN
v -t 1 link-down 1 4 1
d -t 1 -s 1 -d 4 -p tcp -e 1040 -c 1 -i 24 -a 1 -x {0.0 5.0 17 ------- null}
l -t 1 -s 1 -d 4 -S DOWN
v -t 1 link-down 1 1 4
l -t 1 -s 1 -d 4 -S DOWN
v -t 1 link-down 1 1 4
r -t 1.00584 -s 0 -d 1 -p tcp -e 1040 -c 1 -i 25 -a 1 -x {0.0 5.0 18 ------- null}
r -t 1.01474666666667 -s 4 -d 5 -p tcp -e 1040 -c 1 -i 22 -a 1 -x {0.0 5.0 16 ------- null}
- -t 1.02357333333333 -s 0 -d 1 -p tcp -e 1040 -c 1 -i 28 -a 1 -x {0.0 5.0 20 ------- null}
h -t 1.02357333333333 -s 0 -d 1 -p tcp -e 1040 -c 1 -i 28 -a 1 -x {0.0 5.0 -1 ------- null}