V -t * -v 1.0a5 -a 0
A -t * -n 1 -p 0 -o 0xffffffff -c 31 -a 1
A -t * -h 1 -m 2147483647 -s 0
n -t * -a 4 -s 4 -S UP -v circle -c black -i black
n -t * -a 0 -s 0 -S UP -v circle -c black -i black
n -t * -a 5 -s 5 -S UP -v circle -c black -i black
n -t * -a 1 -s 1 -S UP -v circle -c black -i black
n -t * -a 6 -s 6 -S UP -v circle -c black -i black
n -t * -a 2 -s 2 -S UP -v circle -c black -i black
n -t * -a 3 -s 3 -S UP -v circle -c black -i black
l -t * -s 0 -d 1 -S UP -r 700000 -D 0.02 -c black
l -t * -s 2 -d 0 -S UP -r 10000000 -D 0.004559848 -c black
l -t * -s 3 -d 0 -S UP -r 10000000 -D 0.0044103800000000002 -c black
l -t * -s 4 -d 0 -S UP -r 10000000 -D 0.001622889 -c black
l -t * -s 5 -d 0 -S UP -r 10000000 -D 0.0020141399999999998 -c black
l -t * -s 6 -d 0 -S UP -r 10000000 -D 0.0022339319999999997 -c black
q -t * -s 0 -d 1 -a 0.5
q -t * -s 1 -d 0 -a 0.5
+ -t 0.2149783 -s 4 -d 0 -p tcp -e 40 -c 0 -i 0 -a 0 -x {4.0 1.2 0 ------- null}
- -t 0.2149783 -s 4 -d 0 -p tcp -e 40 -c 0 -i 0 -a 0 -x {4.0 1.2 0 ------- null}
h -t 0.2149783 -s 4 -d 0 -p tcp -e 40 -c 0 -i 0 -a 0 -x {4.0 1.2 -1 ------- null}
r -t 0.216633189 -s 4 -d 0 -p tcp -e 40 -c 0 -i 0 -a 0 -x {4.0 1.2 0 ------- null}
+ -t 0.216633189 -s 0 -d 1 -p tcp -e 40 -c 0 -i 0 -a 0 -x {4.0 1.2 0 ------- null}
- -t 0.216633189 -s 0 -d 1 -p tcp -e 40 -c 0 -i 0 -a 0 -x {4.0 1.2 0 ------- null}
h -t 0.216633189 -s 0 -d 1 -p tcp -e 40 -c 0 -i 0 -a 0 -x {4.0 1.2 -1 ------- null}
r -t 0.237090331857143 -s 0 -d 1 -p tcp -e 40 -c 0 -i 0 -a 0 -x {4.0 1.2 0 ------- null}
+ -t 0.237090331857143 -s 1 -d 0 -p ack -e 40 -c 0 -i 1 -a 0 -x {1.2 4.0 0 ------- null}
- -t 0.237090331857143 -s 1 -d 0 -p ack -e 40 -c 0 -i 1 -a 0 -x {1.2 4.0 0 ------- null}
h -t 0.237090331857143 -s 1 -d 0 -p ack -e 40 -c 0 -i 1 -a 0 -x {1.2 4.0 -1 ------- null}
r -t 0.257547474714286 -s 1 -d 0 -p ack -e 40 -c 0 -i 1 -a 0 -x {1.2 4.0 0 ------- null}
+ -t 0.257547474714286 -s 0 -d 4 -p ack -e 40 -c 0 -i 1 -a 0 -x {1.2 4.0 0 ------- null}
- -t 0.257547474714286 -s 0 -d 4 -p ack -e 40 -c 0 -i 1 -a 0 -x {1.2 4.0 0 ------- null}
h -t 0.257547474714286 -s 0 -d 4 -p ack -e 40 -c 0 -i 1 -a 0 -x {1.2 4.0 -1 ------- null}
r -t 0.259202363714286 -s 0 -d 4 -p ack -e 40 -c 0 -i 1 -a 0 -x {1.2 4.0 0 ------- null}
+ -t 0.259202363714286 -s 4 -d 0 -p tcp -e 592 -c 0 -i 2 -a 0 -x {4.0 1.2 1 ------- null}
- -t 0.259202363714286 -s 4 -d 0 -p tcp -e 592 -c 0 -i 2 -a 0 -x {4.0 1.2 1 ------- null}
h -t 0.259202363714286 -s 4 -d 0 -p tcp -e 592 -c 0 -i 2 -a 0 -x {4.0 1.2 -1 ------- null}
+ -t 0.259202363714286 -s 4 -d 0 -p tcp -e 592 -c 0 -i 3 -a 0 -x {4.0 1.2 2 ------- null}
- -t 0.259675963714286 -s 4 -d 0 -p tcp -e 592 -c 0 -i 3 -a 0 -x {4.0 1.2 2 ------- null}
h -t 0.259675963714286 -s 4 -d 0 -p tcp -e 592 -c 0 -i 3 -a 0 -x {4.0 1.2 -1 ------- null}
r -t 0.261298852714286 -s 4 -d 0 -p tcp -e 592 -c 0 -i 2 -a 0 -x {4.0 1.2 1 ------- null}
+ -t 0.261298852714286 -s 0 -d 1 -p tcp -e 592 -c 0 -i 2 -a 0 -x {4.0 1.2 1 ------- null}
- -t 0.261298852714286 -s 0 -d 1 -p tcp -e 592 -c 0 -i 2 -a 0 -x {4.0 1.2 1 ------- null}
h -t 0.261298852714286 -s 0 -d 1 -p tcp -e 592 -c 0 -i 2 -a 0 -x {4.0 1.2 -1 ------- null}
r -t 0.261772452714286 -s 4 -d 0 -p tcp -e 592 -c 0 -i 3 -a 0 -x {4.0 1.2 2 ------- null}
+ -t 0.261772452714286 -s 0 -d 1 -p tcp -e 592 -c 0 -i 3 -a 0 -x {4.0 1.2 2 ------- null}
- -t 0.268064567 -s 0 -d 1 -p tcp -e 592 -c 0 -i 3 -a 0 -x {4.0 1.2 2 ------- null}
h -t 0.268064567 -s 0 -d 1 -p tcp -e 592 -c 0 -i 3 -a 0 -x {4.0 1.2 -1 ------- null}
r -t 0.288064567 -s 0 -d 1 -p tcp -e 592 -c 0 -i 2 -a 0 -x {4.0 1.2 1 ------- null}
+ -t 0.288064567 -s 1 -d 0 -p ack -e 40 -c 0 -i 4 -a 0 -x {1.2 4.0 1 ------- null}
- -t 0.288064567 -s 1 -d 0 -p ack -e 40 -c 0 -i 4 -a 0 -x {1.2 4.0 1 ------- null}
h -t 0.288064567 -s 1 -d 0 -p ack -e 40 -c 0 -i 4 -a 0 -x {1.2 4.0 -1 ------- null}
r -t 0.294830281285714 -s 0 -d 1 -p tcp -e 592 -c 0 -i 3 -a 0 -x {4.0 1.2 2 ------- null}
+ -t 0.294830281285714 -s 1 -d 0 -p ack -e 40 -c 0 -i 5 -a 0 -x {1.2 4.0 2 ------- null}
- -t 0.294830281285714 -s 1 -d 0 -p ack -e 40 -c 0 -i 5 -a 0 -x {1.2 4.0 2 ------- null}
h -t 0.294830281285714 -s 1 -d 0 -p ack -e 40 -c 0 -i 5 -a 0 -x {1.2 4.0 -1 ------- null}
r -t 0.308521709857143 -s 1 -d 0 -p ack -e 40 -c 0 -i 4 -a 0 -x {1.2 4.0 1 ------- null}
+ -t 0.308521709857143 -s 0 -d 4 -p ack -e 40 -c 0 -i 4 -a 0 -x {1.2 4.0 1 ------- null}
- -t 0.308521709857143 -s 0 -d 4 -p ack -e 40 -c 0 -i 4 -a 0 -x {1.2 4.0 1 ------- null}
h -t 0.308521709857143 -s 0 -d 4 -p ack -e 40 -c 0 -i 4 -a 0 -x {1.2 4.0 -1 ------- null}
r -t 0.310176598857143 -s 0 -d 4 -p ack -e 40 -c 0 -i 4 -a 0 -x {1.2 4.0 1 ------- null}
+ -t 0.310176598857143 -s 4 -d 0 -p tcp -e 592 -c 0 -i 6 -a 0 -x {4.0 1.2 3 ------- null}
- -t 0.310176598857143 -s 4 -d 0 -p tcp -e 592 -c 0 -i 6 -a 0 -x {4.0 1.2 3 ------- null}
h -t 0.310176598857143 -s 4 -d 0 -p tcp -e 592 -c 0 -i 6 -a 0 -x {4.0 1.2 -1 ------- null}
+ -t 0.310176598857143 -s 4 -d 0 -p tcp -e 592 -c 0 -i 7 -a 0 -x {4.0 1.2 4 ------- null}
- -t 0.310650198857143 -s 4 -d 0 -p tcp -e 592 -c 0 -i 7 -a 0 -x {4.0 1.2 4 ------- null}
h -t 0.310650198857143 -s 4 -d 0 -p tcp -e 592 -c 0 -i 7 -a 0 -x {4.0 1.2 -1 ------- null}
r -t 0.312273087857143 -s 4 -d 0 -p tcp -e 592 -c 0 -i 6 -a 0 -x {4.0 1.2 3 ------- null}
+ -t 0.312273087857143 -s 0 -d 1 -p tcp -e 592 -c 0 -i 6 -a 0 -x {4.0 1.2 3 ------- null}
- -t 0.312273087857143 -s 0 -d 1 -p tcp -e 592 -c 0 -i 6 -a 0 -x {4.0 1.2 3 ------- null}
h -t 0.312273087857143 -s 0 -d 1 -p tcp -e 592 -c 0 -i 6 -a 0 -x {4.0 1.2 -1 ------- null}
r -t 0.312746687857143 -s 4 -d 0 -p tcp -e 592 -c 0 -i 7 -a 0 -x {4.0 1.2 4 ------- null}
+ -t 0.312746687857143 -s 0 -d 1 -p tcp -e 592 -c 0 -i 7 -a 0 -x {4.0 1.2 4 ------- null}
r -t 0.315287424142857 -s 1 -d 0 -p ack -e 40 -c 0 -i 5 -a 0 -x {1.2 4.0 2 ------- null}
+ -t 0.315287424142857 -s 0 -d 4 -p ack -e 40 -c 0 -i 5 -a 0 -x {1.2 4.0 2 ------- null}
- -t 0.315287424142857 -s 0 -d 4 -p ack -e 40 -c 0 -i 5 -a 0 -x {1.2 4.0 2 ------- null}
h -t 0.315287424142857 -s 0 -d 4 -p ack -e 40 -c 0 -i 5 -a 0 -x {1.2 4.0 -1 ------- null}
r -t 0.316942313142857 -s 0 -d 4 -p ack -e 40 -c 0 -i 5 -a 0 -x {1.2 4.0 2 ------- null}
+ -t 0.316942313142857 -s 4 -d 0 -p tcp -e 592 -c 0 -i 8 -a 0 -x {4.0 1.2 5 ------- null}
- -t 0.316942313142857 -s 4 -d 0 -p tcp -e 592 -c 0 -i 8 -a 0 -x {4.0 1.2 5 ------- null}
h -t 0.316942313142857 -s 4 -d 0 -p tcp -e 592 -c 0 -i 8 -a 0 -x {4.0 1.2 -1 ------- null}
+ -t 0.316942313142857 -s 4 -d 0 -p tcp -e 592 -c 0 -i 9 -a 0 -x {4.0 1.2 6 ------- null}
- -t 0.317415913142857 -s 4 -d 0 -p tcp -e 592 -c 0 -i 9 -a 0 -x {4.0 1.2 6 ------- null}
h -t 0.317415913142857 -s 4 -d 0 -p tcp -e 592 -c 0 -i 9 -a 0 -x {4.0 1.2 -1 ------- null}
- -t 0.319038802142857 -s 0 -d 1 -p tcp -e 592 -c 0 -i 7 -a 0 -x {4.0 1.2 4 ------- null}
h -t 0.319038802142857 -s 0 -d 1 -p tcp -e 592 -c 0 -i 7 -a 0 -x {4.0 1.2 -1 ------- null}
r -t 0.319038802142857 -s 4 -d 0 -p tcp -e 592 -c 0 -i 8 -a 0 -x {4.0 1.2 5 ------- null}
+ -t 0.319038802142857 -s 0 -d 1 -p tcp -e 592 -c 0 -i 8 -a 0 -x {4.0 1.2 5 ------- null}
r -t 0.319512402142857 -s 4 -d 0 -p tcp -e 592 -c 0 -i 9 -a 0 -x {4.0 1.2 6 ------- null}
+ -t 0.319512402142857 -s 0 -d 1 -p tcp -e 592 -c 0 -i 9 -a 0 -x {4.0 1.2 6 ------- null}
- -t 0.325804516428571 -s 0 -d 1 -p tcp -e 592 -c 0 -i 8 -a 0 -x {4.0 1.2 5 ------- null}
h -t 0.325804516428571 -s 0 -d 1 -p tcp -e 592 -c 0 -i 8 -a 0 -x {4.0 1.2 -1 ------- null}
- -t 0.332570230714286 -s 0 -d 1 -p tcp -e 592 -c 0 -i 9 -a 0 -x {4.0 1.2 6 ------- null}
h -t 0.332570230714286 -s 0 -d 1 -p tcp -e 592 -c 0 -i 9 -a 0 -x {4.0 1.2 -1 ------- null}
r -t 0.339038802142857 -s 0 -d 1 -p tcp -e 592 -c 0 -i 6 -a 0 -x {4.0 1.2 3 ------- null}
+ -t 0.339038802142857 -s 1 -d 0 -p ack -e 40 -c 0 -i 10 -a 0 -x {1.2 4.0 3 ------- null}
- -t 0.339038802142857 -s 1 -d 0 -p ack -e 40 -c 0 -i 10 -a 0 -x {1.2 4.0 3 ------- null}
h -t 0.339038802142857 -s 1 -d 0 -p ack -e 40 -c 0 -i 10 -a 0 -x {1.2 4.0 -1 ------- null}
r -t 0.345804516428571 -s 0 -d 1 -p tcp -e 592 -c 0 -i 7 -a 0 -x {4.0 1.2 4 ------- null}
+ -t 0.345804516428571 -s 1 -d 0 -p ack -e 40 -c 0 -i 11 -a 0 -x {1.2 4.0 4 ------- null}
- -t 0.345804516428571 -s 1 -d 0 -p ack -e 40 -c 0 -i 11 -a 0 -x {1.2 4.0 4 ------- null}
h -t 0.345804516428571 -s 1 -d 0 -p ack -e 40 -c 0 -i 11 -a 0 -x {1.2 4.0 -1 ------- null}
r -t 0.352570230714286 -s 0 -d 1 -p tcp -e 592 -c 0 -i 8 -a 0 -x {4.0 1.2 5 ------- null}
+ -t 0.352570230714286 -s 1 -d 0 -p ack -e 40 -c 0 -i 12 -a 0 -x {1.2 4.0 5 ------- null}
- -t 0.352570230714286 -s 1 -d 0 -p ack -e 40 -c 0 -i 12 -a 0 -x {1.2 4.0 5 ------- null}
h -t 0.352570230714286 -s 1 -d 0 -p ack -e 40 -c 0 -i 12 -a 0 -x {1.2 4.0 -1 ------- null}
r -t 0.359335945 -s 0 -d 1 -p tcp -e 592 -c 0 -i 9 -a 0 -x {4.0 1.2 6 ------- null}
+ -t 0.359335945 -s 1 -d 0 -p ack -e 40 -c 0 -i 13 -a 0 -x {1.2 4.0 6 ------- null}
- -t 0.359335945 -s 1 -d 0 -p ack -e 40 -c 0 -i 13 -a 0 -x {1.2 4.0 6 ------- null}
h -t 0.359335945 -s 1 -d 0 -p ack -e 40 -c 0 -i 13 -a 0 -x {1.2 4.0 -1 ------- null}
r -t 0.359495945 -s 1 -d 0 -p ack -e 40 -c 0 -i 10 -a 0 -x {1.2 4.0 3 ------- null}
+ -t 0.359495945 -s 0 -d 4 -p ack -e 40 -c 0 -i 10 -a 0 -x {1.2 4.0 3 ------- null}
- -t 0.359495945 -s 0 -d 4 -p ack -e 40 -c 0 -i 10 -a 0 -x {1.2 4.0 3 ------- null}
h -t 0.359495945 -s 0 -d 4 -p ack -e 40 -c 0 -i 10 -a 0 -x {1.2 4.0 -1 ------- null}
r -t 0.361150834 -s 0 -d 4 -p ack -e 40 -c 0 -i 10 -a 0 -x {1.2 4.0 3 ------- null}
+ -t 0.361150834 -s 4 -d 0 -p tcp -e 592 -c 0 -i 14 -a 0 -x {4.0 1.2 7 ------- null}
- -t 0.361150834 -s 4 -d 0 -p tcp -e 592 -c 0 -i 14 -a 0 -x {4.0 1.2 7 ------- null}
h -t 0.361150834 -s 4 -d 0 -p tcp -e 592 -c 0 -i 14 -a 0 -x {4.0 1.2 -1 ------- null}
+ -t 0.361150834 -s 4 -d 0 -p tcp -e 592 -c 0 -i 15 -a 0 -x {4.0 1.2 8 ------- null}
- -t 0.361624434 -s 4 -d 0 -p tcp -e 592 -c 0 -i 15 -a 0 -x {4.0 1.2 8 ------- null}
h -t 0.361624434 -s 4 -d 0 -p tcp -e 592 -c 0 -i 15 -a 0 -x {4.0 1.2 -1 ------- null}
r -t 0.363247323 -s 4 -d 0 -p tcp -e 592 -c 0 -i 14 -a 0 -x {4.0 1.2 7 ------- null}
+ -t 0.363247323 -s 0 -d 1 -p tcp -e 592 -c 0 -i 14 -a 0 -x {4.0 1.2 7 ------- null}
- -t 0.363247323 -s 0 -d 1 -p tcp -e 592 -c 0 -i 14 -a 0 -x {4.0 1.2 7 ------- null}
h -t 0.363247323 -s 0 -d 1 -p tcp -e 592 -c 0 -i 14 -a 0 -x {4.0 1.2 -1 ------- null}
r -t 0.363720923 -s 4 -d 0 -p tcp -e 592 -c 0 -i 15 -a 0 -x {4.0 1.2 8 ------- null}
+ -t 0.363720923 -s 0 -d 1 -p tcp -e 592 -c 0 -i 15 -a 0 -x {4.0 1.2 8 ------- null}
r -t 0.366261659285714 -s 1 -d 0 -p ack -e 40 -c 0 -i 11 -a 0 -x {1.2 4.0 4 ------- null}
+ -t 0.366261659285714 -s 0 -d 4 -p ack -e 40 -c 0 -i 11 -a 0 -x {1.2 4.0 4 ------- null}
- -t 0.366261659285714 -s 0 -d 4 -p ack -e 40 -c 0 -i 11 -a 0 -x {1.2 4.0 4 ------- null}
h -t 0.366261659285714 -s 0 -d 4 -p ack -e 40 -c 0 -i 11 -a 0 -x {1.2 4.0 -1 ------- null}
r -t 0.367916548285714 -s 0 -d 4 -p ack -e 40 -c 0 -i 11 -a 0 -x {1.2 4.0 4 ------- null}
+ -t 0.367916548285714 -s 4 -d 0 -p tcp -e 592 -c 0 -i 16 -a 0 -x {4.0 1.2 9 ------- null}
- -t 0.367916548285714 -s 4 -d 0 -p tcp -e 592 -c 0 -i 16 -a 0 -x {4.0 1.2 9 ------- null}
h -t 0.367916548285714 -s 4 -d 0 -p tcp -e 592 -c 0 -i 16 -a 0 -x {4.0 1.2 -1 ------- null}
+ -t 0.367916548285714 -s 4 -d 0 -p tcp -e 592 -c 0 -i 17 -a 0 -x {4.0 1.2 10 ------- null}
- -t 0.368390148285714 -s 4 -d 0 -p tcp -e 592 -c 0 -i 17 -a 0 -x {4.0 1.2 10 ------- null}
h -t 0.368390148285714 -s 4 -d 0 -p tcp -e 592 -c 0 -i 17 -a 0 -x {4.0 1.2 -1 ------- null}
- -t 0.370013037285714 -s 0 -d 1 -p tcp -e 592 -c 0 -i 15 -a 0 -x {4.0 1.2 8 ------- null}
h -t 0.370013037285714 -s 0 -d 1 -p tcp -e 592 -c 0 -i 15 -a 0 -x {4.0 1.2 -1 ------- null}
r -t 0.370013037285714 -s 4 -d 0 -p tcp -e 592 -c 0 -i 16 -a 0 -x {4.0 1.2 9 ------- null}
+ -t 0.370013037285714 -s 0 -d 1 -p tcp -e 592 -c 0 -i 16 -a 0 -x {4.0 1.2 9 ------- null}
r -t 0.370486637285714 -s 4 -d 0 -p tcp -e 592 -c 0 -i 17 -a 0 -x {4.0 1.2 10 ------- null}
+ -t 0.370486637285714 -s 0 -d 1 -p tcp -e 592 -c 0 -i 17 -a 0 -x {4.0 1.2 10 ------- null}
r -t 0.373027373571428 -s 1 -d 0 -p ack -e 40 -c 0 -i 12 -a 0 -x {1.2 4.0 5 ------- null}
+ -t 0.373027373571428 -s 0 -d 4 -p ack -e 40 -c 0 -i 12 -a 0 -x {1.2 4.0 5 ------- null}
- -t 0.373027373571428 -s 0 -d 4 -p ack -e 40 -c 0 -i 12 -a 0 -x {1.2 4.0 5 ------- null}
h -t 0.373027373571428 -s 0 -d 4 -p ack -e 40 -c 0 -i 12 -a 0 -x {1.2 4.0 -1 ------- null}
r -t 0.374682262571428 -s 0 -d 4 -p ack -e 40 -c 0 -i 12 -a 0 -x {1.2 4.0 5 ------- null}
+ -t 0.374682262571428 -s 4 -d 0 -p tcp -e 592 -c 0 -i 18 -a 0 -x {4.0 1.2 11 ------- null}
- -t 0.374682262571428 -s 4 -d 0 -p tcp -e 592 -c 0 -i 18 -a 0 -x {4.0 1.2 11 ------- null}
h -t 0.374682262571428 -s 4 -d 0 -p tcp -e 592 -c 0 -i 18 -a 0 -x {4.0 1.2 -1 ------- null}
+ -t 0.374682262571428 -s 4 -d 0 -p tcp -e 592 -c 0 -i 19 -a 0 -x {4.0 1.2 12 ------- null}
- -t 0.375155862571428 -s 4 -d 0 -p tcp -e 592 -c 0 -i 19 -a 0 -x {4.0 1.2 12 ------- null}
h -t 0.375155862571428 -s 4 -d 0 -p tcp -e 592 -c 0 -i 19 -a 0 -x {4.0 1.2 -1 ------- null}
- -t 0.376778751571428 -s 0 -d 1 -p tcp -e 592 -c 0 -i 16 -a 0 -x {4.0 1.2 9 ------- null}
h -t 0.376778751571428 -s 0 -d 1 -p tcp -e 592 -c 0 -i 16 -a 0 -x {4.0 1.2 -1 ------- null}
r -t 0.376778751571428 -s 4 -d 0 -p tcp -e 592 -c 0 -i 18 -a 0 -x {4.0 1.2 11 ------- null}
+ -t 0.376778751571428 -s 0 -d 1 -p tcp -e 592 -c 0 -i 18 -a 0 -x {4.0 1.2 11 ------- null}
r -t 0.377252351571428 -s 4 -d 0 -p tcp -e 592 -c 0 -i 19 -a 0 -x {4.0 1.2 12 ------- null}
+ -t 0.377252351571428 -s 0 -d 1 -p tcp -e 592 -c 0 -i 19 -a 0 -x {4.0 1.2 12 ------- null}
r -t 0.379793087857143 -s 1 -d 0 -p ack -e 40 -c 0 -i 13 -a 0 -x {1.2 4.0 6 ------- null}
+ -t 0.379793087857143 -s 0 -d 4 -p ack -e 40 -c 0 -i 13 -a 0 -x {1.2 4.0 6 ------- null}
- -t 0.379793087857143 -s 0 -d 4 -p ack -e 40 -c 0 -i 13 -a 0 -x {1.2 4.0 6 ------- null}
h -t 0.379793087857143 -s 0 -d 4 -p ack -e 40 -c 0 -i 13 -a 0 -x {1.2 4.0 -1 ------- null}
r -t 0.381447976857143 -s 0 -d 4 -p ack -e 40 -c 0 -i 13 -a 0 -x {1.2 4.0 6 ------- null}
+ -t 0.381447976857143 -s 4 -d 0 -p tcp -e 592 -c 0 -i 20 -a 0 -x {4.0 1.2 13 ------- null}
- -t 0.381447976857143 -s 4 -d 0 -p tcp -e 592 -c 0 -i 20 -a 0 -x {4.0 1.2 13 ------- null}
h -t 0.381447976857143 -s 4 -d 0 -p tcp -e 592 -c 0 -i 20 -a 0 -x {4.0 1.2 -1 ------- null}
+ -t 0.381447976857143 -s 4 -d 0 -p tcp -e 592 -c 0 -i 21 -a 0 -x {4.0 1.2 14 ------- null}
- -t 0.381921576857143 -s 4 -d 0 -p tcp -e 592 -c 0 -i 21 -a 0 -x {4.0 1.2 14 ------- null}
h -t 0.381921576857143 -s 4 -d 0 -p tcp -e 592 -c 0 -i 21 -a 0 -x {4.0 1.2 -1 ------- null}
- -t 0.383544465857143 -s 0 -d 1 -p tcp -e 592 -c 0 -i 17 -a 0 -x {4.0 1.2 10 ------- null}
h -t 0.383544465857143 -s 0 -d 1 -p tcp -e 592 -c 0 -i 17 -a 0 -x {4.0 1.2 -1 ------- null}
r -t 0.383544465857143 -s 4 -d 0 -p tcp -e 592 -c 0 -i 20 -a 0 -x {4.0 1.2 13 ------- null}
+ -t 0.383544465857143 -s 0 -d 1 -p tcp -e 592 -c 0 -i 20 -a 0 -x {4.0 1.2 13 ------- null}
r -t 0.384018065857143 -s 4 -d 0 -p tcp -e 592 -c 0 -i 21 -a 0 -x {4.0 1.2 14 ------- null}
+ -t 0.384018065857143 -s 0 -d 1 -p tcp -e 592 -c 0 -i 21 -a 0 -x {4.0 1.2 14 ------- null}
r -t 0.390013037285714 -s 0 -d 1 -p tcp -e 592 -c 0 -i 14 -a 0 -x {4.0 1.2 7 ------- null}
+ -t 0.390013037285714 -s 1 -d 0 -p ack -e 40 -c 0 -i 22 -a 0 -x {1.2 4.0 7 ------- null}
- -t 0.390013037285714 -s 1 -d 0 -p ack -e 40 -c 0 -i 22 -a 0 -x {1.2 4.0 7 ------- null}
h -t 0.390013037285714 -s 1 -d 0 -p ack -e 40 -c 0 -i 22 -a 0 -x {1.2 4.0 -1 ------- null}
- -t 0.390310180142857 -s 0 -d 1 -p tcp -e 592 -c 0 -i 18 -a 0 -x {4.0 1.2 11 ------- null}
h -t 0.390310180142857 -s 0 -d 1 -p tcp -e 592 -c 0 -i 18 -a 0 -x {4.0 1.2 -1 ------- null}
r -t 0.396778751571428 -s 0 -d 1 -p tcp -e 592 -c 0 -i 15 -a 0 -x {4.0 1.2 8 ------- null}
+ -t 0.396778751571428 -s 1 -d 0 -p ack -e 40 -c 0 -i 23 -a 0 -x {1.2 4.0 8 ------- null}
- -t 0.396778751571428 -s 1 -d 0 -p ack -e 40 -c 0 -i 23 -a 0 -x {1.2 4.0 8 ------- null}
h -t 0.396778751571428 -s 1 -d 0 -p ack -e 40 -c 0 -i 23 -a 0 -x {1.2 4.0 -1 ------- null}
- -t 0.397075894428571 -s 0 -d 1 -p tcp -e 592 -c 0 -i 19 -a 0 -x {4.0 1.2 12 ------- null}
h -t 0.397075894428571 -s 0 -d 1 -p tcp -e 592 -c 0 -i 19 -a 0 -x {4.0 1.2 -1 ------- null}
r -t 0.403544465857143 -s 0 -d 1 -p tcp -e 592 -c 0 -i 16 -a 0 -x {4.0 1.2 9 ------- null}
+ -t 0.403544465857143 -s 1 -d 0 -p ack -e 40 -c 0 -i 24 -a 0 -x {1.2 4.0 9 ------- null}
- -t 0.403544465857143 -s 1 -d 0 -p ack -e 40 -c 0 -i 24 -a 0 -x {1.2 4.0 9 ------- null}
h -t 0.403544465857143 -s 1 -d 0 -p ack -e 40 -c 0 -i 24 -a 0 -x {1.2 4.0 -1 ------- null}
- -t 0.403841608714285 -s 0 -d 1 -p tcp -e 592 -c 0 -i 20 -a 0 -x {4.0 1.2 13 ------- null}
h -t 0.403841608714285 -s 0 -d 1 -p tcp -e 592 -c 0 -i 20 -a 0 -x {4.0 1.2 -1 ------- null}
r -t 0.410310180142857 -s 0 -d 1 -p tcp -e 592 -c 0 -i 17 -a 0 -x {4.0 1.2 10 ------- null}
+ -t 0.410310180142857 -s 1 -d 0 -p ack -e 40 -c 0 -i 25 -a 0 -x {1.2 4.0 10 ------- null}
- -t 0.410310180142857 -s 1 -d 0 -p ack -e 40 -c 0 -i 25 -a 0 -x {1.2 4.0 10 ------- null}
h -t 0.410310180142857 -s 1 -d 0 -p ack -e 40 -c 0 -i 25 -a 0 -x {1.2 4.0 -1 ------- null}
r -t 0.410470180142857 -s 1 -d 0 -p ack -e 40 -c 0 -i 22 -a 0 -x {1.2 4.0 7 ------- null}
+ -t 0.410470180142857 -s 0 -d 4 -p ack -e 40 -c 0 -i 22 -a 0 -x {1.2 4.0 7 ------- null}
- -t 0.410470180142857 -s 0 -d 4 -p ack -e 40 -c 0 -i 22 -a 0 -x {1.2 4.0 7 ------- null}
h -t 0.410470180142857 -s 0 -d 4 -p ack -e 40 -c 0 -i 22 -a 0 -x {1.2 4.0 -1 ------- null}
- -t 0.410607323 -s 0 -d 1 -p tcp -e 592 -c 0 -i 21 -a 0 -x {4.0 1.2 14 ------- null}
h -t 0.410607323 -s 0 -d 1 -p tcp -e 592 -c 0 -i 21 -a 0 -x {4.0 1.2 -1 ------- null}
r -t 0.412125069142857 -s 0 -d 4 -p ack -e 40 -c 0 -i 22 -a 0 -x {1.2 4.0 7 ------- null}
+ -t 0.412125069142857 -s 4 -d 0 -p tcp -e 592 -c 0 -i 26 -a 0 -x {4.0 1.2 15 ------- null}
- -t 0.412125069142857 -s 4 -d 0 -p tcp -e 592 -c 0 -i 26 -a 0 -x {4.0 1.2 15 ------- null}
h -t 0.412125069142857 -s 4 -d 0 -p tcp -e 592 -c 0 -i 26 -a 0 -x {4.0 1.2 -1 ------- null}
+ -t 0.412125069142857 -s 4 -d 0 -p tcp -e 592 -c 0 -i 27 -a 0 -x {4.0 1.2 16 ------- null}
- -t 0.412598669142857 -s 4 -d 0 -p tcp -e 592 -c 0 -i 27 -a 0 -x {4.0 1.2 16 ------- null}
h -t 0.412598669142857 -s 4 -d 0 -p tcp -e 592 -c 0 -i 27 -a 0 -x {4.0 1.2 -1 ------- null}
r -t 0.414221558142857 -s 4 -d 0 -p tcp -e 592 -c 0 -i 26 -a 0 -x {4.0 1.2 15 ------- null}
+ -t 0.414221558142857 -s 0 -d 1 -p tcp -e 592 -c 0 -i 26 -a 0 -x {4.0 1.2 15 ------- null}
r -t 0.414695158142857 -s 4 -d 0 -p tcp -e 592 -c 0 -i 27 -a 0 -x {4.0 1.2 16 ------- null}
+ -t 0.414695158142857 -s 0 -d 1 -p tcp -e 592 -c 0 -i 27 -a 0 -x {4.0 1.2 16 ------- null}
r -t 0.417075894428571 -s 0 -d 1 -p tcp -e 592 -c 0 -i 18 -a 0 -x {4.0 1.2 11 ------- null}
+ -t 0.417075894428571 -s 1 -d 0 -p ack -e 40 -c 0 -i 28 -a 0 -x {1.2 4.0 11 ------- null}
- -t 0.417075894428571 -s 1 -d 0 -p ack -e 40 -c 0 -i 28 -a 0 -x {1.2 4.0 11 ------- null}
h -t 0.417075894428571 -s 1 -d 0 -p ack -e 40 -c 0 -i 28 -a 0 -x {1.2 4.0 -1 ------- null}
r -t 0.417235894428571 -s 1 -d 0 -p ack -e 40 -c 0 -i 23 -a 0 -x {1.2 4.0 8 ------- null}
+ -t 0.417235894428571 -s 0 -d 4 -p ack -e 40 -c 0 -i 23 -a 0 -x {1.2 4.0 8 ------- null}
- -t 0.417235894428571 -s 0 -d 4 -p ack -e 40 -c 0 -i 23 -a 0 -x {1.2 4.0 8 ------- null}
h -t 0.417235894428571 -s 0 -d 4 -p ack -e 40 -c 0 -i 23 -a 0 -x {1.2 4.0 -1 ------- null}
- -t 0.417373037285714 -s 0 -d 1 -p tcp -e 592 -c 0 -i 26 -a 0 -x {4.0 1.2 15 ------- null}
h -t 0.417373037285714 -s 0 -d 1 -p tcp -e 592 -c 0 -i 26 -a 0 -x {4.0 1.2 -1 ------- null}
r -t 0.418890783428571 -s 0 -d 4 -p ack -e 40 -c 0 -i 23 -a 0 -x {1.2 4.0 8 ------- null}
+ -t 0.418890783428571 -s 4 -d 0 -p tcp -e 592 -c 0 -i 29 -a 0 -x {4.0 1.2 17 ------- null}
- -t 0.418890783428571 -s 4 -d 0 -p tcp -e 592 -c 0 -i 29 -a 0 -x {4.0 1.2 17 ------- null}
h -t 0.418890783428571 -s 4 -d 0 -p tcp -e 592 -c 0 -i 29 -a 0 -x {4.0 1.2 -1 ------- null}
+ -t 0.418890783428571 -s 4 -d 0 -p tcp -e 592 -c 0 -i 30 -a 0 -x {4.0 1.2 18 ------- null}
- -t 0.419364383428571 -s 4 -d 0 -p tcp -e 592 -c 0 -i 30 -a 0 -x {4.0 1.2 18 ------- null}
h -t 0.419364383428571 -s 4 -d 0 -p tcp -e 592 -c 0 -i 30 -a 0 -x {4.0 1.2 -1 ------- null}
r -t 0.420987272428571 -s 4 -d 0 -p tcp -e 592 -c 0 -i 29 -a 0 -x {4.0 1.2 17 ------- null}
+ -t 0.420987272428571 -s 0 -d 1 -p tcp -e 592 -c 0 -i 29 -a 0 -x {4.0 1.2 17 ------- null}
r -t 0.421460872428571 -s 4 -d 0 -p tcp -e 592 -c 0 -i 30 -a 0 -x {4.0 1.2 18 ------- null}
+ -t 0.421460872428571 -s 0 -d 1 -p tcp -e 592 -c 0 -i 30 -a 0 -x {4.0 1.2 18 ------- null}
r -t 0.423841608714286 -s 0 -d 1 -p tcp -e 592 -c 0 -i 19 -a 0 -x {4.0 1.2 12 ------- null}
+ -t 0.423841608714286 -s 1 -d 0 -p ack -e 40 -c 0 -i 31 -a 0 -x {1.2 4.0 12 ------- null}
- -t 0.423841608714286 -s 1 -d 0 -p ack -e 40 -c 0 -i 31 -a 0 -x {1.2 4.0 12 ------- null}
h -t 0.423841608714286 -s 1 -d 0 -p ack -e 40 -c 0 -i 31 -a 0 -x {1.2 4.0 -1 ------- null}
r -t 0.424001608714286 -s 1 -d 0 -p ack -e 40 -c 0 -i 24 -a 0 -x {1.2 4.0 9 ------- null}
+ -t 0.424001608714286 -s 0 -d 4 -p ack -e 40 -c 0 -i 24 -a 0 -x {1.2 4.0 9 ------- null}
- -t 0.424001608714286 -s 0 -d 4 -p ack -e 40 -c 0 -i 24 -a 0 -x {1.2 4.0 9 ------- null}
h -t 0.424001608714286 -s 0 -d 4 -p ack -e 40 -c 0 -i 24 -a 0 -x {1.2 4.0 -1 ------- null}
- -t 0.424138751571428 -s 0 -d 1 -p tcp -e 592 -c 0 -i 27 -a 0 -x {4.0 1.2 16 ------- null}
h -t 0.424138751571428 -s 0 -d 1 -p tcp -e 592 -c 0 -i 27 -a 0 -x {4.0 1.2 -1 ------- null}
r -t 0.425656497714286 -s 0 -d 4 -p ack -e 40 -c 0 -i 24 -a 0 -x {1.2 4.0 9 ------- null}
+ -t 0.425656497714286 -s 4 -d 0 -p tcp -e 592 -c 0 -i 32 -a 0 -x {4.0 1.2 19 ------- null}
- -t 0.425656497714286 -s 4 -d 0 -p tcp -e 592 -c 0 -i 32 -a 0 -x {4.0 1.2 19 ------- null}
h -t 0.425656497714286 -s 4 -d 0 -p tcp -e 592 -c 0 -i 32 -a 0 -x {4.0 1.2 -1 ------- null}
+ -t 0.425656497714286 -s 4 -d 0 -p tcp -e 592 -c 0 -i 33 -a 0 -x {4.0 1.2 20 ------- null}
- -t 0.426130097714286 -s 4 -d 0 -p tcp -e 592 -c 0 -i 33 -a 0 -x {4.0 1.2 20 ------- null}
h -t 0.426130097714286 -s 4 -d 0 -p tcp -e 592 -c 0 -i 33 -a 0 -x {4.0 1.2 -1 ------- null}
r -t 0.427752986714286 -s 4 -d 0 -p tcp -e 592 -c 0 -i 32 -a 0 -x {4.0 1.2 19 ------- null}
+ -t 0.427752986714286 -s 0 -d 1 -p tcp -e 592 -c 0 -i 32 -a 0 -x {4.0 1.2 19 ------- null}
r -t 0.428226586714286 -s 4 -d 0 -p tcp -e 592 -c 0 -i 33 -a 0 -x {4.0 1.2 20 ------- null}
+ -t 0.428226586714286 -s 0 -d 1 -p tcp -e 592 -c 0 -i 33 -a 0 -x {4.0 1.2 20 ------- null}
r -t 0.430607323 -s 0 -d 1 -p tcp -e 592 -c 0 -i 20 -a 0 -x {4.0 1.2 13 ------- null}
+ -t 0.430607323 -s 1 -d 0 -p ack -e 40 -c 0 -i 34 -a 0 -x {1.2 4.0 13 ------- null}
- -t 0.430607323 -s 1 -d 0 -p ack -e 40 -c 0 -i 34 -a 0 -x {1.2 4.0 13 ------- null}
h -t 0.430607323 -s 1 -d 0 -p ack -e 40 -c 0 -i 34 -a 0 -x {1.2 4.0 -1 ------- null}
r -t 0.430767323 -s 1 -d 0 -p ack -e 40 -c 0 -i 25 -a 0 -x {1.2 4.0 10 ------- null}
+ -t 0.430767323 -s 0 -d 4 -p ack -e 40 -c 0 -i 25 -a 0 -x {1.2 4.0 10 ------- null}
- -t 0.430767323 -s 0 -d 4 -p ack -e 40 -c 0 -i 25 -a 0 -x {1.2 4.0 10 ------- null}
h -t 0.430767323 -s 0 -d 4 -p ack -e 40 -c 0 -i 25 -a 0 -x {1.2 4.0 -1 ------- null}
- -t 0.430904465857143 -s 0 -d 1 -p tcp -e 592 -c 0 -i 29 -a 0 -x {4.0 1.2 17 ------- null}
h -t 0.430904465857143 -s 0 -d 1 -p tcp -e 592 -c 0 -i 29 -a 0 -x {4.0 1.2 -1 ------- null}
r -t 0.432422212 -s 0 -d 4 -p ack -e 40 -c 0 -i 25 -a 0 -x {1.2 4.0 10 ------- null}
+ -t 0.432422212 -s 4 -d 0 -p tcp -e 592 -c 0 -i 35 -a 0 -x {4.0 1.2 21 ------- null}
- -t 0.432422212 -s 4 -d 0 -p tcp -e 592 -c 0 -i 35 -a 0 -x {4.0 1.2 21 ------- null}
h -t 0.432422212 -s 4 -d 0 -p tcp -e 592 -c 0 -i 35 -a 0 -x {4.0 1.2 -1 ------- null}
+ -t 0.432422212 -s 4 -d 0 -p tcp -e 592 -c 0 -i 36 -a 0 -x {4.0 1.2 22 ------- null}
- -t 0.432895812 -s 4 -d 0 -p tcp -e 592 -c 0 -i 36 -a 0 -x {4.0 1.2 22 ------- null}
h -t 0.432895812 -s 4 -d 0 -p tcp -e 592 -c 0 -i 36 -a 0 -x {4.0 1.2 -1 ------- null}
r -t 0.434518701 -s 4 -d 0 -p tcp -e 592 -c 0 -i 35 -a 0 -x {4.0 1.2 21 ------- null}
+ -t 0.434518701 -s 0 -d 1 -p tcp -e 592 -c 0 -i 35 -a 0 -x {4.0 1.2 21 ------- null}
r -t 0.434992301 -s 4 -d 0 -p tcp -e 592 -c 0 -i 36 -a 0 -x {4.0 1.2 22 ------- null}
+ -t 0.434992301 -s 0 -d 1 -p tcp -e 592 -c 0 -i 36 -a 0 -x {4.0 1.2 22 ------- null}
r -t 0.437373037285714 -s 0 -d 1 -p tcp -e 592 -c 0 -i 21 -a 0 -x {4.0 1.2 14 ------- null}
+ -t 0.437373037285714 -s 1 -d 0 -p ack -e 40 -c 0 -i 37 -a 0 -x {1.2 4.0 14 ------- null}
- -t 0.437373037285714 -s 1 -d 0 -p ack -e 40 -c 0 -i 37 -a 0 -x {1.2 4.0 14 ------- null}
h -t 0.437373037285714 -s 1 -d 0 -p ack -e 40 -c 0 -i 37 -a 0 -x {1.2 4.0 -1 ------- null}
r -t 0.437533037285714 -s 1 -d 0 -p ack -e 40 -c 0 -i 28 -a 0 -x {1.2 4.0 11 ------- null}
+ -t 0.437533037285714 -s 0 -d 4 -p ack -e 40 -c 0 -i 28 -a 0 -x {1.2 4.0 11 ------- null}
- -t 0.437533037285714 -s 0 -d 4 -p ack -e 40 -c 0 -i 28 -a 0 -x {1.2 4.0 11 ------- null}
h -t 0.437533037285714 -s 0 -d 4 -p ack -e 40 -c 0 -i 28 -a 0 -x {1.2 4.0 -1 ------- null}
- -t 0.437670180142857 -s 0 -d 1 -p tcp -e 592 -c 0 -i 30 -a 0 -x {4.0 1.2 18 ------- null}
h -t 0.437670180142857 -s 0 -d 1 -p tcp -e 592 -c 0 -i 30 -a 0 -x {4.0 1.2 -1 ------- null}
r -t 0.439187926285714 -s 0 -d 4 -p ack -e 40 -c 0 -i 28 -a 0 -x {1.2 4.0 11 ------- null}
+ -t 0.439187926285714 -s 4 -d 0 -p tcp -e 592 -c 0 -i 38 -a 0 -x {4.0 1.2 23 ------- null}
- -t 0.439187926285714 -s 4 -d 0 -p tcp -e 592 -c 0 -i 38 -a 0 -x {4.0 1.2 23 ------- null}
h -t 0.439187926285714 -s 4 -d 0 -p tcp -e 592 -c 0 -i 38 -a 0 -x {4.0 1.2 -1 ------- null}
+ -t 0.439187926285714 -s 4 -d 0 -p tcp -e 592 -c 0 -i 39 -a 0 -x {4.0 1.2 24 ------- null}
- -t 0.439661526285714 -s 4 -d 0 -p tcp -e 592 -c 0 -i 39 -a 0 -x {4.0 1.2 24 ------- null}
h -t 0.439661526285714 -s 4 -d 0 -p tcp -e 592 -c 0 -i 39 -a 0 -x {4.0 1.2 -1 ------- null}
r -t 0.441284415285714 -s 4 -d 0 -p tcp -e 592 -c 0 -i 38 -a 0 -x {4.0 1.2 23 ------- null}
+ -t 0.441284415285714 -s 0 -d 1 -p tcp -e 592 -c 0 -i 38 -a 0 -x {4.0 1.2 23 ------- null}
r -t 0.441758015285714 -s 4 -d 0 -p tcp -e 592 -c 0 -i 39 -a 0 -x {4.0 1.2 24 ------- null}
+ -t 0.441758015285714 -s 0 -d 1 -p tcp -e 592 -c 0 -i 39 -a 0 -x {4.0 1.2 24 ------- null}
r -t 0.444138751571428 -s 0 -d 1 -p tcp -e 592 -c 0 -i 26 -a 0 -x {4.0 1.2 15 ------- null}
+ -t 0.444138751571428 -s 1 -d 0 -p ack -e 40 -c 0 -i 40 -a 0 -x {1.2 4.0 15 ------- null}
- -t 0.444138751571428 -s 1 -d 0 -p ack -e 40 -c 0 -i 40 -a 0 -x {1.2 4.0 15 ------- null}
h -t 0.444138751571428 -s 1 -d 0 -p ack -e 40 -c 0 -i 40 -a 0 -x {1.2 4.0 -1 ------- null}
r -t 0.444298751571428 -s 1 -d 0 -p ack -e 40 -c 0 -i 31 -a 0 -x {1.2 4.0 12 ------- null}
+ -t 0.444298751571428 -s 0 -d 4 -p ack -e 40 -c 0 -i 31 -a 0 -x {1.2 4.0 12 ------- null}
- -t 0.444298751571428 -s 0 -d 4 -p ack -e 40 -c 0 -i 31 -a 0 -x {1.2 4.0 12 ------- null}
h -t 0.444298751571428 -s 0 -d 4 -p ack -e 40 -c 0 -i 31 -a 0 -x {1.2 4.0 -1 ------- null}
- -t 0.444435894428571 -s 0 -d 1 -p tcp -e 592 -c 0 -i 32 -a 0 -x {4.0 1.2 19 ------- null}
h -t 0.444435894428571 -s 0 -d 1 -p tcp -e 592 -c 0 -i 32 -a 0 -x {4.0 1.2 -1 ------- null}
r -t 0.445953640571428 -s 0 -d 4 -p ack -e 40 -c 0 -i 31 -a 0 -x {1.2 4.0 12 ------- null}
+ -t 0.445953640571428 -s 4 -d 0 -p tcp -e 592 -c 0 -i 41 -a 0 -x {4.0 1.2 25 ------- null}
- -t 0.445953640571428 -s 4 -d 0 -p tcp -e 592 -c 0 -i 41 -a 0 -x {4.0 1.2 25 ------- null}
h -t 0.445953640571428 -s 4 -d 0 -p tcp -e 592 -c 0 -i 41 -a 0 -x {4.0 1.2 -1 ------- null}
+ -t 0.445953640571428 -s 4 -d 0 -p tcp -e 592 -c 0 -i 42 -a 0 -x {4.0 1.2 26 ------- null}
- -t 0.446427240571428 -s 4 -d 0 -p tcp -e 592 -c 0 -i 42 -a 0 -x {4.0 1.2 26 ------- null}
h -t 0.446427240571428 -s 4 -d 0 -p tcp -e 592 -c 0 -i 42 -a 0 -x {4.0 1.2 -1 ------- null}
r -t 0.448050129571428 -s 4 -d 0 -p tcp -e 592 -c 0 -i 41 -a 0 -x {4.0 1.2 25 ------- null}
+ -t 0.448050129571428 -s 0 -d 1 -p tcp -e 592 -c 0 -i 41 -a 0 -x {4.0 1.2 25 ------- null}
r -t 0.448523729571428 -s 4 -d 0 -p tcp -e 592 -c 0 -i 42 -a 0 -x {4.0 1.2 26 ------- null}
+ -t 0.448523729571428 -s 0 -d 1 -p tcp -e 592 -c 0 -i 42 -a 0 -x {4.0 1.2 26 ------- null}
r -t 0.450904465857143 -s 0 -d 1 -p tcp -e 592 -c 0 -i 27 -a 0 -x {4.0 1.2 16 ------- null}
+ -t 0.450904465857143 -s 1 -d 0 -p ack -e 40 -c 0 -i 43 -a 0 -x {1.2 4.0 16 ------- null}
- -t 0.450904465857143 -s 1 -d 0 -p ack -e 40 -c 0 -i 43 -a 0 -x {1.2 4.0 16 ------- null}
h -t 0.450904465857143 -s 1 -d 0 -p ack -e 40 -c 0 -i 43 -a 0 -x {1.2 4.0 -1 ------- null}
r -t 0.451064465857143 -s 1 -d 0 -p ack -e 40 -c 0 -i 34 -a 0 -x {1.2 4.0 13 ------- null}
+ -t 0.451064465857143 -s 0 -d 4 -p ack -e 40 -c 0 -i 34 -a 0 -x {1.2 4.0 13 ------- null}
- -t 0.451064465857143 -s 0 -d 4 -p ack -e 40 -c 0 -i 34 -a 0 -x {1.2 4.0 13 ------- null}
h -t 0.451064465857143 -s 0 -d 4 -p ack -e 40 -c 0 -i 34 -a 0 -x {1.2 4.0 -1 ------- null}
- -t 0.451201608714285 -s 0 -d 1 -p tcp -e 592 -c 0 -i 33 -a 0 -x {4.0 1.2 20 ------- null}
h -t 0.451201608714285 -s 0 -d 1 -p tcp -e 592 -c 0 -i 33 -a 0 -x {4.0 1.2 -1 ------- null}
r -t 0.452719354857143 -s 0 -d 4 -p ack -e 40 -c 0 -i 34 -a 0 -x {1.2 4.0 13 ------- null}
+ -t 0.452719354857143 -s 4 -d 0 -p tcp -e 592 -c 0 -i 44 -a 0 -x {4.0 1.2 27 ------- null}
- -t 0.452719354857143 -s 4 -d 0 -p tcp -e 592 -c 0 -i 44 -a 0 -x {4.0 1.2 27 ------- null}
h -t 0.452719354857143 -s 4 -d 0 -p tcp -e 592 -c 0 -i 44 -a 0 -x {4.0 1.2 -1 ------- null}
+ -t 0.452719354857143 -s 4 -d 0 -p tcp -e 592 -c 0 -i 45 -a 0 -x {4.0 1.2 28 ------- null}
- -t 0.453192954857143 -s 4 -d 0 -p tcp -e 592 -c 0 -i 45 -a 0 -x {4.0 1.2 28 ------- null}
h -t 0.453192954857143 -s 4 -d 0 -p tcp -e 592 -c 0 -i 45 -a 0 -x {4.0 1.2 -1 ------- null}
r -t 0.454815843857143 -s 4 -d 0 -p tcp -e 592 -c 0 -i 44 -a 0 -x {4.0 1.2 27 ------- null}
+ -t 0.454815843857143 -s 0 -d 1 -p tcp -e 592 -c 0 -i 44 -a 0 -x {4.0 1.2 27 ------- null}