+ 0.214978 4 0 tcp 40 ------- 0 4.0 1.2 0 0
- 0.214978 4 0 tcp 40 ------- 0 4.0 1.2 0 0
r 0.216633 4 0 tcp 40 ------- 0 4.0 1.2 0 0
+ 0.216633 0 1 tcp 40 ------- 0 4.0 1.2 0 0
- 0.216633 0 1 tcp 40 ------- 0 4.0 1.2 0 0
r 0.23709 0 1 tcp 40 ------- 0 4.0 1.2 0 0
+ 0.23709 1 0 ack 40 ------- 0 1.2 4.0 0 1
- 0.23709 1 0 ack 40 ------- 0 1.2 4.0 0 1
r 0.257547 1 0 ack 40 ------- 0 1.2 4.0 0 1
+ 0.257547 0 4 ack 40 ------- 0 1.2 4.0 0 1
- 0.257547 0 4 ack 40 ------- 0 1.2 4.0 0 1
r 0.259202 0 4 ack 40 ------- 0 1.2 4.0 0 1
+ 0.259202 4 0 tcp 592 ------- 0 4.0 1.2 1 2
- 0.259202 4 0 tcp 592 ------- 0 4.0 1.2 1 2
+ 0.259202 4 0 tcp 592 ------- 0 4.0 1.2 2 3
- 0.259676 4 0 tcp 592 ------- 0 4.0 1.2 2 3
r 0.261299 4 0 tcp 592 ------- 0 4.0 1.2 1 2
+ 0.261299 0 1 tcp 592 ------- 0 4.0 1.2 1 2
- 0.261299 0 1 tcp 592 ------- 0 4.0 1.2 1 2
r 0.261772 4 0 tcp 592 ------- 0 4.0 1.2 2 3
+ 0.261772 0 1 tcp 592 ------- 0 4.0 1.2 2 3
- 0.268065 0 1 tcp 592 ------- 0 4.0 1.2 2 3
r 0.288065 0 1 tcp 592 ------- 0 4.0 1.2 1 2
+ 0.288065 1 0 ack 40 ------- 0 1.2 4.0 1 4
- 0.288065 1 0 ack 40 ------- 0 1.2 4.0 1 4
r 0.29483 0 1 tcp 592 ------- 0 4.0 1.2 2 3
+ 0.29483 1 0 ack 40 ------- 0 1.2 4.0 2 5
- 0.29483 1 0 ack 40 ------- 0 1.2 4.0 2 5
r 0.308522 1 0 ack 40 ------- 0 1.2 4.0 1 4
+ 0.308522 0 4 ack 40 ------- 0 1.2 4.0 1 4
- 0.308522 0 4 ack 40 ------- 0 1.2 4.0 1 4
r 0.310177 0 4 ack 40 ------- 0 1.2 4.0 1 4
+ 0.310177 4 0 tcp 592 ------- 0 4.0 1.2 3 6
- 0.310177 4 0 tcp 592 ------- 0 4.0 1.2 3 6
+ 0.310177 4 0 tcp 592 ------- 0 4.0 1.2 4 7
- 0.31065 4 0 tcp 592 ------- 0 4.0 1.2 4 7
r 0.312273 4 0 tcp 592 ------- 0 4.0 1.2 3 6
+ 0.312273 0 1 tcp 592 ------- 0 4.0 1.2 3 6
- 0.312273 0 1 tcp 592 ------- 0 4.0 1.2 3 6
r 0.312747 4 0 tcp 592 ------- 0 4.0 1.2 4 7
+ 0.312747 0 1 tcp 592 ------- 0 4.0 1.2 4 7
r 0.315287 1 0 ack 40 ------- 0 1.2 4.0 2 5
+ 0.315287 0 4 ack 40 ------- 0 1.2 4.0 2 5
- 0.315287 0 4 ack 40 ------- 0 1.2 4.0 2 5
r 0.316942 0 4 ack 40 ------- 0 1.2 4.0 2 5
+ 0.316942 4 0 tcp 592 ------- 0 4.0 1.2 5 8
- 0.316942 4 0 tcp 592 ------- 0 4.0 1.2 5 8
+ 0.316942 4 0 tcp 592 ------- 0 4.0 1.2 6 9
- 0.317416 4 0 tcp 592 ------- 0 4.0 1.2 6 9
- 0.319039 0 1 tcp 592 ------- 0 4.0 1.2 4 7
r 0.319039 4 0 tcp 592 ------- 0 4.0 1.2 5 8
+ 0.319039 0 1 tcp 592 ------- 0 4.0 1.2 5 8
r 0.319512 4 0 tcp 592 ------- 0 4.0 1.2 6 9
+ 0.319512 0 1 tcp 592 ------- 0 4.0 1.2 6 9
- 0.325805 0 1 tcp 592 ------- 0 4.0 1.2 5 8
- 0.33257 0 1 tcp 592 ------- 0 4.0 1.2 6 9
r 0.339039 0 1 tcp 592 ------- 0 4.0 1.2 3 6
+ 0.339039 1 0 ack 40 ------- 0 1.2 4.0 3 10
- 0.339039 1 0 ack 40 ------- 0 1.2 4.0 3 10
r 0.345805 0 1 tcp 592 ------- 0 4.0 1.2 4 7
+ 0.345805 1 0 ack 40 ------- 0 1.2 4.0 4 11
- 0.345805 1 0 ack 40 ------- 0 1.2 4.0 4 11
r 0.35257 0 1 tcp 592 ------- 0 4.0 1.2 5 8
+ 0.35257 1 0 ack 40 ------- 0 1.2 4.0 5 12
- 0.35257 1 0 ack 40 ------- 0 1.2 4.0 5 12
r 0.359336 0 1 tcp 592 ------- 0 4.0 1.2 6 9
+ 0.359336 1 0 ack 40 ------- 0 1.2 4.0 6 13
- 0.359336 1 0 ack 40 ------- 0 1.2 4.0 6 13
r 0.359496 1 0 ack 40 ------- 0 1.2 4.0 3 10
+ 0.359496 0 4 ack 40 ------- 0 1.2 4.0 3 10
- 0.359496 0 4 ack 40 ------- 0 1.2 4.0 3 10
r 0.361151 0 4 ack 40 ------- 0 1.2 4.0 3 10
+ 0.361151 4 0 tcp 592 ------- 0 4.0 1.2 7 14
- 0.361151 4 0 tcp 592 ------- 0 4.0 1.2 7 14
+ 0.361151 4 0 tcp 592 ------- 0 4.0 1.2 8 15
- 0.361624 4 0 tcp 592 ------- 0 4.0 1.2 8 15
r 0.363247 4 0 tcp 592 ------- 0 4.0 1.2 7 14
+ 0.363247 0 1 tcp 592 ------- 0 4.0 1.2 7 14
- 0.363247 0 1 tcp 592 ------- 0 4.0 1.2 7 14
r 0.363721 4 0 tcp 592 ------- 0 4.0 1.2 8 15
+ 0.363721 0 1 tcp 592 ------- 0 4.0 1.2 8 15
r 0.366262 1 0 ack 40 ------- 0 1.2 4.0 4 11
+ 0.366262 0 4 ack 40 ------- 0 1.2 4.0 4 11
- 0.366262 0 4 ack 40 ------- 0 1.2 4.0 4 11
r 0.367917 0 4 ack 40 ------- 0 1.2 4.0 4 11
+ 0.367917 4 0 tcp 592 ------- 0 4.0 1.2 9 16
- 0.367917 4 0 tcp 592 ------- 0 4.0 1.2 9 16
+ 0.367917 4 0 tcp 592 ------- 0 4.0 1.2 10 17
- 0.36839 4 0 tcp 592 ------- 0 4.0 1.2 10 17
- 0.370013 0 1 tcp 592 ------- 0 4.0 1.2 8 15
r 0.370013 4 0 tcp 592 ------- 0 4.0 1.2 9 16
+ 0.370013 0 1 tcp 592 ------- 0 4.0 1.2 9 16
r 0.370487 4 0 tcp 592 ------- 0 4.0 1.2 10 17
+ 0.370487 0 1 tcp 592 ------- 0 4.0 1.2 10 17
r 0.373027 1 0 ack 40 ------- 0 1.2 4.0 5 12
+ 0.373027 0 4 ack 40 ------- 0 1.2 4.0 5 12
- 0.373027 0 4 ack 40 ------- 0 1.2 4.0 5 12
r 0.374682 0 4 ack 40 ------- 0 1.2 4.0 5 12
+ 0.374682 4 0 tcp 592 ------- 0 4.0 1.2 11 18
- 0.374682 4 0 tcp 592 ------- 0 4.0 1.2 11 18
+ 0.374682 4 0 tcp 592 ------- 0 4.0 1.2 12 19
- 0.375156 4 0 tcp 592 ------- 0 4.0 1.2 12 19
- 0.376779 0 1 tcp 592 ------- 0 4.0 1.2 9 16
r 0.376779 4 0 tcp 592 ------- 0 4.0 1.2 11 18
+ 0.376779 0 1 tcp 592 ------- 0 4.0 1.2 11 18
r 0.377252 4 0 tcp 592 ------- 0 4.0 1.2 12 19
+ 0.377252 0 1 tcp 592 ------- 0 4.0 1.2 12 19
r 0.379793 1 0 ack 40 ------- 0 1.2 4.0 6 13
+ 0.379793 0 4 ack 40 ------- 0 1.2 4.0 6 13
- 0.379793 0 4 ack 40 ------- 0 1.2 4.0 6 13
r 0.381448 0 4 ack 40 ------- 0 1.2 4.0 6 13
+ 0.381448 4 0 tcp 592 ------- 0 4.0 1.2 13 20
- 0.381448 4 0 tcp 592 ------- 0 4.0 1.2 13 20
+ 0.381448 4 0 tcp 592 ------- 0 4.0 1.2 14 21
- 0.381922 4 0 tcp 592 ------- 0 4.0 1.2 14 21
- 0.383544 0 1 tcp 592 ------- 0 4.0 1.2 10 17
r 0.383544 4 0 tcp 592 ------- 0 4.0 1.2 13 20
+ 0.383544 0 1 tcp 592 ------- 0 4.0 1.2 13 20
r 0.384018 4 0 tcp 592 ------- 0 4.0 1.2 14 21
+ 0.384018 0 1 tcp 592 ------- 0 4.0 1.2 14 21
r 0.390013 0 1 tcp 592 ------- 0 4.0 1.2 7 14
+ 0.390013 1 0 ack 40 ------- 0 1.2 4.0 7 22
- 0.390013 1 0 ack 40 ------- 0 1.2 4.0 7 22
- 0.39031 0 1 tcp 592 ------- 0 4.0 1.2 11 18
r 0.396779 0 1 tcp 592 ------- 0 4.0 1.2 8 15
+ 0.396779 1 0 ack 40 ------- 0 1.2 4.0 8 23
- 0.396779 1 0 ack 40 ------- 0 1.2 4.0 8 23
- 0.397076 0 1 tcp 592 ------- 0 4.0 1.2 12 19
r 0.403544 0 1 tcp 592 ------- 0 4.0 1.2 9 16
+ 0.403544 1 0 ack 40 ------- 0 1.2 4.0 9 24
- 0.403544 1 0 ack 40 ------- 0 1.2 4.0 9 24
- 0.403842 0 1 tcp 592 ------- 0 4.0 1.2 13 20
r 0.41031 0 1 tcp 592 ------- 0 4.0 1.2 10 17
+ 0.41031 1 0 ack 40 ------- 0 1.2 4.0 10 25
- 0.41031 1 0 ack 40 ------- 0 1.2 4.0 10 25
r 0.41047 1 0 ack 40 ------- 0 1.2 4.0 7 22
+ 0.41047 0 4 ack 40 ------- 0 1.2 4.0 7 22
- 0.41047 0 4 ack 40 ------- 0 1.2 4.0 7 22
- 0.410607 0 1 tcp 592 ------- 0 4.0 1.2 14 21
r 0.412125 0 4 ack 40 ------- 0 1.2 4.0 7 22
+ 0.412125 4 0 tcp 592 ------- 0 4.0 1.2 15 26
- 0.412125 4 0 tcp 592 ------- 0 4.0 1.2 15 26
+ 0.412125 4 0 tcp 592 ------- 0 4.0 1.2 16 27
- 0.412599 4 0 tcp 592 ------- 0 4.0 1.2 16 27
r 0.414222 4 0 tcp 592 ------- 0 4.0 1.2 15 26
+ 0.414222 0 1 tcp 592 ------- 0 4.0 1.2 15 26
r 0.414695 4 0 tcp 592 ------- 0 4.0 1.2 16 27
+ 0.414695 0 1 tcp 592 ------- 0 4.0 1.2 16 27
r 0.417076 0 1 tcp 592 ------- 0 4.0 1.2 11 18
+ 0.417076 1 0 ack 40 ------- 0 1.2 4.0 11 28
- 0.417076 1 0 ack 40 ------- 0 1.2 4.0 11 28
r 0.417236 1 0 ack 40 ------- 0 1.2 4.0 8 23
+ 0.417236 0 4 ack 40 ------- 0 1.2 4.0 8 23
- 0.417236 0 4 ack 40 ------- 0 1.2 4.0 8 23
- 0.417373 0 1 tcp 592 ------- 0 4.0 1.2 15 26
r 0.418891 0 4 ack 40 ------- 0 1.2 4.0 8 23
+ 0.418891 4 0 tcp 592 ------- 0 4.0 1.2 17 29
- 0.418891 4 0 tcp 592 ------- 0 4.0 1.2 17 29
+ 0.418891 4 0 tcp 592 ------- 0 4.0 1.2 18 30
- 0.419364 4 0 tcp 592 ------- 0 4.0 1.2 18 30
r 0.420987 4 0 tcp 592 ------- 0 4.0 1.2 17 29
+ 0.420987 0 1 tcp 592 ------- 0 4.0 1.2 17 29
r 0.421461 4 0 tcp 592 ------- 0 4.0 1.2 18 30
+ 0.421461 0 1 tcp 592 ------- 0 4.0 1.2 18 30
r 0.423842 0 1 tcp 592 ------- 0 4.0 1.2 12 19
+ 0.423842 1 0 ack 40 ------- 0 1.2 4.0 12 31
- 0.423842 1 0 ack 40 ------- 0 1.2 4.0 12 31
r 0.424002 1 0 ack 40 ------- 0 1.2 4.0 9 24
+ 0.424002 0 4 ack 40 ------- 0 1.2 4.0 9 24
- 0.424002 0 4 ack 40 ------- 0 1.2 4.0 9 24
- 0.424139 0 1 tcp 592 ------- 0 4.0 1.2 16 27
r 0.425656 0 4 ack 40 ------- 0 1.2 4.0 9 24
+ 0.425656 4 0 tcp 592 ------- 0 4.0 1.2 19 32
- 0.425656 4 0 tcp 592 ------- 0 4.0 1.2 19 32
+ 0.425656 4 0 tcp 592 ------- 0 4.0 1.2 20 33
- 0.42613 4 0 tcp 592 ------- 0 4.0 1.2 20 33
r 0.427753 4 0 tcp 592 ------- 0 4.0 1.2 19 32
+ 0.427753 0 1 tcp 592 ------- 0 4.0 1.2 19 32
r 0.428227 4 0 tcp 592 ------- 0 4.0 1.2 20 33
+ 0.428227 0 1 tcp 592 ------- 0 4.0 1.2 20 33
r 0.430607 0 1 tcp 592 ------- 0 4.0 1.2 13 20
+ 0.430607 1 0 ack 40 ------- 0 1.2 4.0 13 34
- 0.430607 1 0 ack 40 ------- 0 1.2 4.0 13 34
r 0.430767 1 0 ack 40 ------- 0 1.2 4.0 10 25
+ 0.430767 0 4 ack 40 ------- 0 1.2 4.0 10 25
- 0.430767 0 4 ack 40 ------- 0 1.2 4.0 10 25
- 0.430904 0 1 tcp 592 ------- 0 4.0 1.2 17 29
r 0.432422 0 4 ack 40 ------- 0 1.2 4.0 10 25
+ 0.432422 4 0 tcp 592 ------- 0 4.0 1.2 21 35
- 0.432422 4 0 tcp 592 ------- 0 4.0 1.2 21 35
+ 0.432422 4 0 tcp 592 ------- 0 4.0 1.2 22 36
- 0.432896 4 0 tcp 592 ------- 0 4.0 1.2 22 36
r 0.434519 4 0 tcp 592 ------- 0 4.0 1.2 21 35
+ 0.434519 0 1 tcp 592 ------- 0 4.0 1.2 21 35
r 0.434992 4 0 tcp 592 ------- 0 4.0 1.2 22 36
+ 0.434992 0 1 tcp 592 ------- 0 4.0 1.2 22 36
r 0.437373 0 1 tcp 592 ------- 0 4.0 1.2 14 21
+ 0.437373 1 0 ack 40 ------- 0 1.2 4.0 14 37
- 0.437373 1 0 ack 40 ------- 0 1.2 4.0 14 37
r 0.437533 1 0 ack 40 ------- 0 1.2 4.0 11 28
+ 0.437533 0 4 ack 40 ------- 0 1.2 4.0 11 28
- 0.437533 0 4 ack 40 ------- 0 1.2 4.0 11 28
- 0.43767 0 1 tcp 592 ------- 0 4.0 1.2 18 30
r 0.439188 0 4 ack 40 ------- 0 1.2 4.0 11 28
+ 0.439188 4 0 tcp 592 ------- 0 4.0 1.2 23 38
- 0.439188 4 0 tcp 592 ------- 0 4.0 1.2 23 38
+ 0.439188 4 0 tcp 592 ------- 0 4.0 1.2 24 39
- 0.439662 4 0 tcp 592 ------- 0 4.0 1.2 24 39
r 0.441284 4 0 tcp 592 ------- 0 4.0 1.2 23 38
+ 0.441284 0 1 tcp 592 ------- 0 4.0 1.2 23 38
r 0.441758 4 0 tcp 592 ------- 0 4.0 1.2 24 39
+ 0.441758 0 1 tcp 592 ------- 0 4.0 1.2 24 39
r 0.444139 0 1 tcp 592 ------- 0 4.0 1.2 15 26
+ 0.444139 1 0 ack 40 ------- 0 1.2 4.0 15 40
- 0.444139 1 0 ack 40 ------- 0 1.2 4.0 15 40
r 0.444299 1 0 ack 40 ------- 0 1.2 4.0 12 31
+ 0.444299 0 4 ack 40 ------- 0 1.2 4.0 12 31
- 0.444299 0 4 ack 40 ------- 0 1.2 4.0 12 31
- 0.444436 0 1 tcp 592 ------- 0 4.0 1.2 19 32
r 0.445954 0 4 ack 40 ------- 0 1.2 4.0 12 31
+ 0.445954 4 0 tcp 592 ------- 0 4.0 1.2 25 41
- 0.445954 4 0 tcp 592 ------- 0 4.0 1.2 25 41
+ 0.445954 4 0 tcp 592 ------- 0 4.0 1.2 26 42
- 0.446427 4 0 tcp 592 ------- 0 4.0 1.2 26 42
r 0.44805 4 0 tcp 592 ------- 0 4.0 1.2 25 41
+ 0.44805 0 1 tcp 592 ------- 0 4.0 1.2 25 41
r 0.448524 4 0 tcp 592 ------- 0 4.0 1.2 26 42
+ 0.448524 0 1 tcp 592 ------- 0 4.0 1.2 26 42
r 0.450904 0 1 tcp 592 ------- 0 4.0 1.2 16 27
+ 0.450904 1 0 ack 40 ------- 0 1.2 4.0 16 43
- 0.450904 1 0 ack 40 ------- 0 1.2 4.0 16 43
r 0.451064 1 0 ack 40 ------- 0 1.2 4.0 13 34
+ 0.451064 0 4 ack 40 ------- 0 1.2 4.0 13 34
- 0.451064 0 4 ack 40 ------- 0 1.2 4.0 13 34
- 0.451202 0 1 tcp 592 ------- 0 4.0 1.2 20 33
r 0.452719 0 4 ack 40 ------- 0 1.2 4.0 13 34
+ 0.452719 4 0 tcp 592 ------- 0 4.0 1.2 27 44
- 0.452719 4 0 tcp 592 ------- 0 4.0 1.2 27 44
+ 0.452719 4 0 tcp 592 ------- 0 4.0 1.2 28 45
- 0.453193 4 0 tcp 592 ------- 0 4.0 1.2 28 45
r 0.454816 4 0 tcp 592 ------- 0 4.0 1.2 27 44
+ 0.454816 0 1 tcp 592 ------- 0 4.0 1.2 27 44
r 0.455289 4 0 tcp 592 ------- 0 4.0 1.2 28 45
+ 0.455289 0 1 tcp 592 ------- 0 4.0 1.2 28 45
r 0.45767 0 1 tcp 592 ------- 0 4.0 1.2 17 29
+ 0.45767 1 0 ack 40 ------- 0 1.2 4.0 17 46
- 0.45767 1 0 ack 40 ------- 0 1.2 4.0 17 46
r 0.45783 1 0 ack 40 ------- 0 1.2 4.0 14 37
+ 0.45783 0 4 ack 40 ------- 0 1.2 4.0 14 37
- 0.45783 0 4 ack 40 ------- 0 1.2 4.0 14 37
- 0.457967 0 1 tcp 592 ------- 0 4.0 1.2 21 35
r 0.459485 0 4 ack 40 ------- 0 1.2 4.0 14 37
+ 0.459485 4 0 tcp 592 ------- 0 4.0 1.2 29 47
- 0.459485 4 0 tcp 592 ------- 0 4.0 1.2 29 47
+ 0.459485 4 0 tcp 592 ------- 0 4.0 1.2 30 48
- 0.459959 4 0 tcp 592 ------- 0 4.0 1.2 30 48
r 0.461582 4 0 tcp 592 ------- 0 4.0 1.2 29 47
+ 0.461582 0 1 tcp 592 ------- 0 4.0 1.2 29 47
r 0.462055 4 0 tcp 592 ------- 0 4.0 1.2 30 48
+ 0.462055 0 1 tcp 592 ------- 0 4.0 1.2 30 48
r 0.464436 0 1 tcp 592 ------- 0 4.0 1.2 18 30
+ 0.464436 1 0 ack 40 ------- 0 1.2 4.0 18 49
- 0.464436 1 0 ack 40 ------- 0 1.2 4.0 18 49
r 0.464596 1 0 ack 40 ------- 0 1.2 4.0 15 40
+ 0.464596 0 4 ack 40 ------- 0 1.2 4.0 15 40
- 0.464596 0 4 ack 40 ------- 0 1.2 4.0 15 40
- 0.464733 0 1 tcp 592 ------- 0 4.0 1.2 22 36
r 0.466251 0 4 ack 40 ------- 0 1.2 4.0 15 40
+ 0.466251 4 0 tcp 592 ------- 0 4.0 1.2 31 50
- 0.466251 4 0 tcp 592 ------- 0 4.0 1.2 31 50
+ 0.466251 4 0 tcp 592 ------- 0 4.0 1.2 32 51
- 0.466724 4 0 tcp 592 ------- 0 4.0 1.2 32 51
r 0.468347 4 0 tcp 592 ------- 0 4.0 1.2 31 50
+ 0.468347 0 1 tcp 592 ------- 0 4.0 1.2 31 50
r 0.468821 4 0 tcp 592 ------- 0 4.0 1.2 32 51
+ 0.468821 0 1 tcp 592 ------- 0 4.0 1.2 32 51
d 0.468821 0 1 tcp 592 ------- 0 4.0 1.2 32 51
r 0.471202 0 1 tcp 592 ------- 0 4.0 1.2 19 32
+ 0.471202 1 0 ack 40 ------- 0 1.2 4.0 19 52
- 0.471202 1 0 ack 40 ------- 0 1.2 4.0 19 52
r 0.471362 1 0 ack 40 ------- 0 1.2 4.0 16 43
+ 0.471362 0 4 ack 40 ------- 0 1.2 4.0 16 43
- 0.471362 0 4 ack 40 ------- 0 1.2 4.0 16 43
- 0.471499 0 1 tcp 592 ------- 0 4.0 1.2 23 38
r 0.473016 0 4 ack 40 ------- 0 1.2 4.0 16 43
+ 0.473016 4 0 tcp 592 ------- 0 4.0 1.2 33 53
- 0.473016 4 0 tcp 592 ------- 0 4.0 1.2 33 53
+ 0.473016 4 0 tcp 592 ------- 0 4.0 1.2 34 54
- 0.47349 4 0 tcp 592 ------- 0 4.0 1.2 34 54
r 0.475113 4 0 tcp 592 ------- 0 4.0 1.2 33 53
+ 0.475113 0 1 tcp 592 ------- 0 4.0 1.2 33 53
r 0.475587 4 0 tcp 592 ------- 0 4.0 1.2 34 54
+ 0.475587 0 1 tcp 592 ------- 0 4.0 1.2 34 54
d 0.475587 0 1 tcp 592 ------- 0 4.0 1.2 34 54
r 0.477967 0 1 tcp 592 ------- 0 4.0 1.2 20 33
+ 0.477967 1 0 ack 40 ------- 0 1.2 4.0 20 55
- 0.477967 1 0 ack 40 ------- 0 1.2 4.0 20 55
r 0.478127 1 0 ack 40 ------- 0 1.2 4.0 17 46
+ 0.478127 0 4 ack 40 ------- 0 1.2 4.0 17 46
- 0.478127 0 4 ack 40 ------- 0 1.2 4.0 17 46
- 0.478264 0 1 tcp 592 ------- 0 4.0 1.2 24 39
r 0.479782 0 4 ack 40 ------- 0 1.2 4.0 17 46
+ 0.479782 4 0 tcp 592 ------- 0 4.0 1.2 35 56
- 0.479782 4 0 tcp 592 ------- 0 4.0 1.2 35 56
+ 0.479782 4 0 tcp 592 ------- 0 4.0 1.2 36 57
- 0.480256 4 0 tcp 592 ------- 0 4.0 1.2 36 57
r 0.481879 4 0 tcp 592 ------- 0 4.0 1.2 35 56
+ 0.481879 0 1 tcp 592 ------- 0 4.0 1.2 35 56
r 0.482352 4 0 tcp 592 ------- 0 4.0 1.2 36 57
+ 0.482352 0 1 tcp 592 ------- 0 4.0 1.2 36 57
d 0.482352 0 1 tcp 592 ------- 0 4.0 1.2 36 57
r 0.484733 0 1 tcp 592 ------- 0 4.0 1.2 21 35
+ 0.484733 1 0 ack 40 ------- 0 1.2 4.0 21 58
- 0.484733 1 0 ack 40 ------- 0 1.2 4.0 21 58
r 0.484893 1 0 ack 40 ------- 0 1.2 4.0 18 49
+ 0.484893 0 4 ack 40 ------- 0 1.2 4.0 18 49
- 0.484893 0 4 ack 40 ------- 0 1.2 4.0 18 49
- 0.48503 0 1 tcp 592 ------- 0 4.0 1.2 25 41
r 0.486548 0 4 ack 40 ------- 0 1.2 4.0 18 49
+ 0.486548 4 0 tcp 592 ------- 0 4.0 1.2 37 59
- 0.486548 4 0 tcp 592 ------- 0 4.0 1.2 37 59
+ 0.486548 4 0 tcp 592 ------- 0 4.0 1.2 38 60
- 0.487022 4 0 tcp 592 ------- 0 4.0 1.2 38 60
r 0.488644 4 0 tcp 592 ------- 0 4.0 1.2 37 59
+ 0.488644 0 1 tcp 592 ------- 0 4.0 1.2 37 59
r 0.489118 4 0 tcp 592 ------- 0 4.0 1.2 38 60
+ 0.489118 0 1 tcp 592 ------- 0 4.0 1.2 38 60
d 0.489118 0 1 tcp 592 ------- 0 4.0 1.2 38 60
r 0.491499 0 1 tcp 592 ------- 0 4.0 1.2 22 36
+ 0.491499 1 0 ack 40 ------- 0 1.2 4.0 22 61
- 0.491499 1 0 ack 40 ------- 0 1.2 4.0 22 61
r 0.491659 1 0 ack 40 ------- 0 1.2 4.0 19 52
+ 0.491659 0 4 ack 40 ------- 0 1.2 4.0 19 52
- 0.491659 0 4 ack 40 ------- 0 1.2 4.0 19 52
- 0.491796 0 1 tcp 592 ------- 0 4.0 1.2 26 42
r 0.493314 0 4 ack 40 ------- 0 1.2 4.0 19 52
+ 0.493314 4 0 tcp 592 ------- 0 4.0 1.2 39 62
- 0.493314 4 0 tcp 592 ------- 0 4.0 1.2 39 62
r 0.49541 4 0 tcp 592 ------- 0 4.0 1.2 39 62
+ 0.49541 0 1 tcp 592 ------- 0 4.0 1.2 39 62
r 0.498264 0 1 tcp 592 ------- 0 4.0 1.2 23 38
+ 0.498264 1 0 ack 40 ------- 0 1.2 4.0 23 63
- 0.498264 1 0 ack 40 ------- 0 1.2 4.0 23 63
r 0.498424 1 0 ack 40 ------- 0 1.2 4.0 20 55
+ 0.498424 0 4 ack 40 ------- 0 1.2 4.0 20 55
- 0.498424 0 4 ack 40 ------- 0 1.2 4.0 20 55
- 0.498562 0 1 tcp 592 ------- 0 4.0 1.2 27 44
r 0.500079 0 4 ack 40 ------- 0 1.2 4.0 20 55
+ 0.500079 4 0 tcp 592 ------- 0 4.0 1.2 40 64
- 0.500079 4 0 tcp 592 ------- 0 4.0 1.2 40 64
r 0.502176 4 0 tcp 592 ------- 0 4.0 1.2 40 64
+ 0.502176 0 1 tcp 592 ------- 0 4.0 1.2 40 64
r 0.50503 0 1 tcp 592 ------- 0 4.0 1.2 24 39
+ 0.50503 1 0 ack 40 ------- 0 1.2 4.0 24 65
- 0.50503 1 0 ack 40 ------- 0 1.2 4.0 24 65
r 0.50519 1 0 ack 40 ------- 0 1.2 4.0 21 58
+ 0.50519 0 4 ack 40 ------- 0 1.2 4.0 21 58
- 0.50519 0 4 ack 40 ------- 0 1.2 4.0 21 58
- 0.505327 0 1 tcp 592 ------- 0 4.0 1.2 28 45
r 0.506845 0 4 ack 40 ------- 0 1.2 4.0 21 58
+ 0.506845 4 0 tcp 592 ------- 0 4.0 1.2 41 66
- 0.506845 4 0 tcp 592 ------- 0 4.0 1.2 41 66
r 0.508942 4 0 tcp 592 ------- 0 4.0 1.2 41 66
+ 0.508942 0 1 tcp 592 ------- 0 4.0 1.2 41 66
r 0.511796 0 1 tcp 592 ------- 0 4.0 1.2 25 41
+ 0.511796 1 0 ack 40 ------- 0 1.2 4.0 25 67
- 0.511796 1 0 ack 40 ------- 0 1.2 4.0 25 67
r 0.511956 1 0 ack 40 ------- 0 1.2 4.0 22 61
+ 0.511956 0 4 ack 40 ------- 0 1.2 4.0 22 61
- 0.511956 0 4 ack 40 ------- 0 1.2 4.0 22 61
- 0.512093 0 1 tcp 592 ------- 0 4.0 1.2 29 47
r 0.513611 0 4 ack 40 ------- 0 1.2 4.0 22 61
+ 0.513611 4 0 tcp 592 ------- 0 4.0 1.2 42 68
- 0.513611 4 0 tcp 592 ------- 0 4.0 1.2 42 68
r 0.515707 4 0 tcp 592 ------- 0 4.0 1.2 42 68
+ 0.515707 0 1 tcp 592 ------- 0 4.0 1.2 42 68
r 0.518562 0 1 tcp 592 ------- 0 4.0 1.2 26 42
+ 0.518562 1 0 ack 40 ------- 0 1.2 4.0 26 69
- 0.518562 1 0 ack 40 ------- 0 1.2 4.0 26 69
r 0.518722 1 0 ack 40 ------- 0 1.2 4.0 23 63
+ 0.518722 0 4 ack 40 ------- 0 1.2 4.0 23 63
- 0.518722 0 4 ack 40 ------- 0 1.2 4.0 23 63
- 0.518859 0 1 tcp 592 ------- 0 4.0 1.2 30 48
r 0.520376 0 4 ack 40 ------- 0 1.2 4.0 23 63
+ 0.520376 4 0 tcp 592 ------- 0 4.0 1.2 43 70
- 0.520376 4 0 tcp 592 ------- 0 4.0 1.2 43 70
r 0.522473 4 0 tcp 592 ------- 0 4.0 1.2 43 70
+ 0.522473 0 1 tcp 592 ------- 0 4.0 1.2 43 70
r 0.525327 0 1 tcp 592 ------- 0 4.0 1.2 27 44
+ 0.525327 1 0 ack 40 ------- 0 1.2 4.0 27 71
- 0.525327 1 0 ack 40 ------- 0 1.2 4.0 27 71
r 0.525487 1 0 ack 40 ------- 0 1.2 4.0 24 65
+ 0.525487 0 4 ack 40 ------- 0 1.2 4.0 24 65
- 0.525487 0 4 ack 40 ------- 0 1.2 4.0 24 65
- 0.525624 0 1 tcp 592 ------- 0 4.0 1.2 31 50
r 0.527142 0 4 ack 40 ------- 0 1.2 4.0 24 65
+ 0.527142 4 0 tcp 592 ------- 0 4.0 1.2 44 72
- 0.527142 4 0 tcp 592 ------- 0 4.0 1.2 44 72
r 0.529239 4 0 tcp 592 ------- 0 4.0 1.2 44 72
+ 0.529239 0 1 tcp 592 ------- 0 4.0 1.2 44 72
r 0.532093 0 1 tcp 592 ------- 0 4.0 1.2 28 45
+ 0.532093 1 0 ack 40 ------- 0 1.2 4.0 28 73
- 0.532093 1 0 ack 40 ------- 0 1.2 4.0 28 73
r 0.532253 1 0 ack 40 ------- 0 1.2 4.0 25 67
+ 0.532253 0 4 ack 40 ------- 0 1.2 4.0 25 67
- 0.532253 0 4 ack 40 ------- 0 1.2 4.0 25 67
- 0.53239 0 1 tcp 592 ------- 0 4.0 1.2 33 53
r 0.533908 0 4 ack 40 ------- 0 1.2 4.0 25 67
+ 0.533908 4 0 tcp 592 ------- 0 4.0 1.2 45 74
- 0.533908 4 0 tcp 592 ------- 0 4.0 1.2 45 74
r 0.536004 4 0 tcp 592 ------- 0 4.0 1.2 45 74
+ 0.536004 0 1 tcp 592 ------- 0 4.0 1.2 45 74
r 0.538859 0 1 tcp 592 ------- 0 4.0 1.2 29 47
+ 0.538859 1 0 ack 40 ------- 0 1.2 4.0 29 75
- 0.538859 1 0 ack 40 ------- 0 1.2 4.0 29 75
r 0.539019 1 0 ack 40 ------- 0 1.2 4.0 26 69
+ 0.539019 0 4 ack 40 ------- 0 1.2 4.0 26 69
- 0.539019 0 4 ack 40 ------- 0 1.2 4.0 26 69
- 0.539156 0 1 tcp 592 ------- 0 4.0 1.2 35 56
r 0.540674 0 4 ack 40 ------- 0 1.2 4.0 26 69
+ 0.540674 4 0 tcp 592 ------- 0 4.0 1.2 46 76
- 0.540674 4 0 tcp 592 ------- 0 4.0 1.2 46 76
r 0.54277 4 0 tcp 592 ------- 0 4.0 1.2 46 76
+ 0.54277 0 1 tcp 592 ------- 0 4.0 1.2 46 76
r 0.545624 0 1 tcp 592 ------- 0 4.0 1.2 30 48
+ 0.545624 1 0 ack 40 ------- 0 1.2 4.0 30 77
- 0.545624 1 0 ack 40 ------- 0 1.2 4.0 30 77
r 0.545784 1 0 ack 40 ------- 0 1.2 4.0 27 71
+ 0.545784 0 4 ack 40 ------- 0 1.2 4.0 27 71
- 0.545784 0 4 ack 40 ------- 0 1.2 4.0 27 71
- 0.545922 0 1 tcp 592 ------- 0 4.0 1.2 37 59
r 0.547439 0 4 ack 40 ------- 0 1.2 4.0 27 71
+ 0.547439 4 0 tcp 592 ------- 0 4.0 1.2 47 78
- 0.547439 4 0 tcp 592 ------- 0 4.0 1.2 47 78
r 0.549536 4 0 tcp 592 ------- 0 4.0 1.2 47 78
+ 0.549536 0 1 tcp 592 ------- 0 4.0 1.2 47 78
r 0.55239 0 1 tcp 592 ------- 0 4.0 1.2 31 50
+ 0.55239 1 0 ack 40 ------- 0 1.2 4.0 31 79
- 0.55239 1 0 ack 40 ------- 0 1.2 4.0 31 79
r 0.55255 1 0 ack 40 ------- 0 1.2 4.0 28 73
+ 0.55255 0 4 ack 40 ------- 0 1.2 4.0 28 73
- 0.55255 0 4 ack 40 ------- 0 1.2 4.0 28 73
- 0.552687 0 1 tcp 592 ------- 0 4.0 1.2 39 62
r 0.554205 0 4 ack 40 ------- 0 1.2 4.0 28 73
+ 0.554205 4 0 tcp 592 ------- 0 4.0 1.2 48 80
- 0.554205 4 0 tcp 592 ------- 0 4.0 1.2 48 80
r 0.556302 4 0 tcp 592 ------- 0 4.0 1.2 48 80
+ 0.556302 0 1 tcp 592 ------- 0 4.0 1.2 48 80
r 0.559156 0 1 tcp 592 ------- 0 4.0 1.2 33 53
+ 0.559156 1 0 ack 40 ------- 0 1.2 4.0 31 81
- 0.559156 1 0 ack 40 ------- 0 1.2 4.0 31 81
r 0.559316 1 0 ack 40 ------- 0 1.2 4.0 29 75
+ 0.559316 0 4 ack 40 ------- 0 1.2 4.0 29 75
- 0.559316 0 4 ack 40 ------- 0 1.2 4.0 29 75
- 0.559453 0 1 tcp 592 ------- 0 4.0 1.2 40 64
r 0.560971 0 4 ack 40 ------- 0 1.2 4.0 29 75
+ 0.560971 4 0 tcp 592 ------- 0 4.0 1.2 49 82
- 0.560971 4 0 tcp 592 ------- 0 4.0 1.2 49 82
r 0.563067 4 0 tcp 592 ------- 0 4.0 1.2 49 82
+ 0.563067 0 1 tcp 592 ------- 0 4.0 1.2 49 82
r 0.565922 0 1 tcp 592 ------- 0 4.0 1.2 35 56
+ 0.565922 1 0 ack 40 ------- 0 1.2 4.0 31 83
- 0.565922 1 0 ack 40 ------- 0 1.2 4.0 31 83
r 0.566082 1 0 ack 40 ------- 0 1.2 4.0 30 77
+ 0.566082 0 4 ack 40 ------- 0 1.2 4.0 30 77
- 0.566082 0 4 ack 40 ------- 0 1.2 4.0 30 77
- 0.566219 0 1 tcp 592 ------- 0 4.0 1.2 41 66
r 0.567736 0 4 ack 40 ------- 0 1.2 4.0 30 77
+ 0.567736 4 0 tcp 592 ------- 0 4.0 1.2 50 84
- 0.567736 4 0 tcp 592 ------- 0 4.0 1.2 50 84
r 0.569833 4 0 tcp 592 ------- 0 4.0 1.2 50 84
+ 0.569833 0 1 tcp 592 ------- 0 4.0 1.2 50 84
r 0.572687 0 1 tcp 592 ------- 0 4.0 1.2 37 59
+ 0.572687 1 0 ack 40 ------- 0 1.2 4.0 31 85
- 0.572687 1 0 ack 40 ------- 0 1.2 4.0 31 85
r 0.572847 1 0 ack 40 ------- 0 1.2 4.0 31 79
+ 0.572847 0 4 ack 40 ------- 0 1.2 4.0 31 79
- 0.572847 0 4 ack 40 ------- 0 1.2 4.0 31 79
- 0.572984 0 1 tcp 592 ------- 0 4.0 1.2 42 68
r 0.574502 0 4 ack 40 ------- 0 1.2 4.0 31 79
+ 0.574502 4 0 tcp 592 ------- 0 4.0 1.2 51 86
- 0.574502 4 0 tcp 592 ------- 0 4.0 1.2 51 86
r 0.576599 4 0 tcp 592 ------- 0 4.0 1.2 51 86
+ 0.576599 0 1 tcp 592 ------- 0 4.0 1.2 51 86
r 0.579453 0 1 tcp 592 ------- 0 4.0 1.2 39 62
+ 0.579453 1 0 ack 40 ------- 0 1.2 4.0 31 87
- 0.579453 1 0 ack 40 ------- 0 1.2 4.0 31 87
r 0.579613 1 0 ack 40 ------- 0 1.2 4.0 31 81
+ 0.579613 0 4 ack 40 ------- 0 1.2 4.0 31 81
- 0.579613 0 4 ack 40 ------- 0 1.2 4.0 31 81
- 0.57975 0 1 tcp 592 ------- 0 4.0 1.2 43 70
r 0.581268 0 4 ack 40 ------- 0 1.2 4.0 31 81
r 0.586219 0 1 tcp 592 ------- 0 4.0 1.2 40 64
+ 0.586219 1 0 ack 40 ------- 0 1.2 4.0 31 88
- 0.586219 1 0 ack 40 ------- 0 1.2 4.0 31 88
r 0.586379 1 0 ack 40 ------- 0 1.2 4.0 31 83
+ 0.586379 0 4 ack 40 ------- 0 1.2 4.0 31 83
- 0.586379 0 4 ack 40 ------- 0 1.2 4.0 31 83
- 0.586516 0 1 tcp 592 ------- 0 4.0 1.2 44 72
r 0.588034 0 4 ack 40 ------- 0 1.2 4.0 31 83
r 0.592984 0 1 tcp 592 ------- 0 4.0 1.2 41 66
+ 0.592984 1 0 ack 40 ------- 0 1.2 4.0 31 89
- 0.592984 1 0 ack 40 ------- 0 1.2 4.0 31 89
r 0.593144 1 0 ack 40 ------- 0 1.2 4.0 31 85
+ 0.593144 0 4 ack 40 ------- 0 1.2 4.0 31 85
- 0.593144 0 4 ack 40 ------- 0 1.2 4.0 31 85
- 0.593282 0 1 tcp 592 ------- 0 4.0 1.2 45 74
r 0.594799 0 4 ack 40 ------- 0 1.2 4.0 31 85
+ 0.594799 4 0 tcp 592 ---A--- 0 4.0 1.2 32 90
- 0.594799 4 0 tcp 592 ---A--- 0 4.0 1.2 32 90
r 0.596896 4 0 tcp 592 ---A--- 0 4.0 1.2 32 90
+ 0.596896 0 1 tcp 592 ---A--- 0 4.0 1.2 32 90
r 0.59975 0 1 tcp 592 ------- 0 4.0 1.2 42 68
+ 0.59975 1 0 ack 40 ------- 0 1.2 4.0 31 91
- 0.59975 1 0 ack 40 ------- 0 1.2 4.0 31 91
r 0.59991 1 0 ack 40 ------- 0 1.2 4.0 31 87
+ 0.59991 0 4 ack 40 ------- 0 1.2 4.0 31 87
- 0.59991 0 4 ack 40 ------- 0 1.2 4.0 31 87
- 0.600047 0 1 tcp 592 ------- 0 4.0 1.2 46 76
r 0.601565 0 4 ack 40 ------- 0 1.2 4.0 31 87
r 0.606516 0 1 tcp 592 ------- 0 4.0 1.2 43 70
+ 0.606516 1 0 ack 40 ------- 0 1.2 4.0 31 92
- 0.606516 1 0 ack 40 ------- 0 1.2 4.0 31 92
r 0.606676 1 0 ack 40 ------- 0 1.2 4.0 31 88
+ 0.606676 0 4 ack 40 ------- 0 1.2 4.0 31 88
- 0.606676 0 4 ack 40 ------- 0 1.2 4.0 31 88
- 0.606813 0 1 tcp 592 ------- 0 4.0 1.2 47 78
r 0.608331 0 4 ack 40 ------- 0 1.2 4.0 31 88
r 0.613282 0 1 tcp 592 ------- 0 4.0 1.2 44 72
+ 0.613282 1 0 ack 40 ------- 0 1.2 4.0 31 93
- 0.613282 1 0 ack 40 ------- 0 1.2 4.0 31 93
r 0.613442 1 0 ack 40 ------- 0 1.2 4.0 31 89
+ 0.613442 0 4 ack 40 ------- 0 1.2 4.0 31 89
- 0.613442 0 4 ack 40 ------- 0 1.2 4.0 31 89
- 0.613579 0 1 tcp 592 ------- 0 4.0 1.2 48 80
r 0.615096 0 4 ack 40 ------- 0 1.2 4.0 31 89
r 0.620047 0 1 tcp 592 ------- 0 4.0 1.2 45 74
+ 0.620047 1 0 ack 40 ------- 0 1.2 4.0 31 94
- 0.620047 1 0 ack 40 ------- 0 1.2 4.0 31 94
r 0.620207 1 0 ack 40 ------- 0 1.2 4.0 31 91
+ 0.620207 0 4 ack 40 ------- 0 1.2 4.0 31 91
- 0.620207 0 4 ack 40 ------- 0 1.2 4.0 31 91
- 0.620344 0 1 tcp 592 ------- 0 4.0 1.2 49 82
r 0.621862 0 4 ack 40 ------- 0 1.2 4.0 31 91
r 0.626813 0 1 tcp 592 ------- 0 4.0 1.2 46 76
+ 0.626813 1 0 ack 40 ------- 0 1.2 4.0 31 95
- 0.626813 1 0 ack 40 ------- 0 1.2 4.0 31 95
r 0.626973 1 0 ack 40 ------- 0 1.2 4.0 31 92
+ 0.626973 0 4 ack 40 ------- 0 1.2 4.0 31 92
- 0.626973 0 4 ack 40 ------- 0 1.2 4.0 31 92
- 0.62711 0 1 tcp 592 ------- 0 4.0 1.2 50 84
r 0.628628 0 4 ack 40 ------- 0 1.2 4.0 31 92
r 0.633579 0 1 tcp 592 ------- 0 4.0 1.2 47 78
+ 0.633579 1 0 ack 40 ------- 0 1.2 4.0 31 96
- 0.633579 1 0 ack 40 ------- 0 1.2 4.0 31 96
r 0.633739 1 0 ack 40 ------- 0 1.2 4.0 31 93
+ 0.633739 0 4 ack 40 ------- 0 1.2 4.0 31 93
- 0.633739 0 4 ack 40 ------- 0 1.2 4.0 31 93
- 0.633876 0 1 tcp 592 ------- 0 4.0 1.2 51 86
r 0.635394 0 4 ack 40 ------- 0 1.2 4.0 31 93
r 0.640344 0 1 tcp 592 ------- 0 4.0 1.2 48 80
+ 0.640344 1 0 ack 40 ------- 0 1.2 4.0 31 97
- 0.640344 1 0 ack 40 ------- 0 1.2 4.0 31 97
r 0.640504 1 0 ack 40 ------- 0 1.2 4.0 31 94
+ 0.640504 0 4 ack 40 ------- 0 1.2 4.0 31 94
- 0.640504 0 4 ack 40 ------- 0 1.2 4.0 31 94
- 0.640642 0 1 tcp 592 ---A--- 0 4.0 1.2 32 90
r 0.642159 0 4 ack 40 ------- 0 1.2 4.0 31 94
r 0.64711 0 1 tcp 592 ------- 0 4.0 1.2 49 82
+ 0.64711 1 0 ack 40 ------- 0 1.2 4.0 31 98
- 0.64711 1 0 ack 40 ------- 0 1.2 4.0 31 98
r 0.64727 1 0 ack 40 ------- 0 1.2 4.0 31 95
+ 0.64727 0 4 ack 40 ------- 0 1.2 4.0 31 95
- 0.64727 0 4 ack 40 ------- 0 1.2 4.0 31 95
r 0.648925 0 4 ack 40 ------- 0 1.2 4.0 31 95
r 0.653876 0 1 tcp 592 ------- 0 4.0 1.2 50 84
+ 0.653876 1 0 ack 40 ------- 0 1.2 4.0 31 99
- 0.653876 1 0 ack 40 ------- 0 1.2 4.0 31 99
r 0.654036 1 0 ack 40 ------- 0 1.2 4.0 31 96
+ 0.654036 0 4 ack 40 ------- 0 1.2 4.0 31 96
- 0.654036 0 4 ack 40 ------- 0 1.2 4.0 31 96
r 0.655691 0 4 ack 40 ------- 0 1.2 4.0 31 96
r 0.660642 0 1 tcp 592 ------- 0 4.0 1.2 51 86
+ 0.660642 1 0 ack 40 ------- 0 1.2 4.0 31 100
- 0.660642 1 0 ack 40 ------- 0 1.2 4.0 31 100
r 0.660802 1 0 ack 40 ------- 0 1.2 4.0 31 97
+ 0.660802 0 4 ack 40 ------- 0 1.2 4.0 31 97
- 0.660802 0 4 ack 40 ------- 0 1.2 4.0 31 97
r 0.662456 0 4 ack 40 ------- 0 1.2 4.0 31 97
r 0.667407 0 1 tcp 592 ---A--- 0 4.0 1.2 32 90
+ 0.667407 1 0 ack 40 ------- 0 1.2 4.0 33 101
- 0.667407 1 0 ack 40 ------- 0 1.2 4.0 33 101
r 0.667567 1 0 ack 40 ------- 0 1.2 4.0 31 98
+ 0.667567 0 4 ack 40 ------- 0 1.2 4.0 31 98
- 0.667567 0 4 ack 40 ------- 0 1.2 4.0 31 98
r 0.669222 0 4 ack 40 ------- 0 1.2 4.0 31 98
r 0.674333 1 0 ack 40 ------- 0 1.2 4.0 31 99
+ 0.674333 0 4 ack 40 ------- 0 1.2 4.0 31 99
- 0.674333 0 4 ack 40 ------- 0 1.2 4.0 31 99
r 0.675988 0 4 ack 40 ------- 0 1.2 4.0 31 99
r 0.681099 1 0 ack 40 ------- 0 1.2 4.0 31 100
+ 0.681099 0 4 ack 40 ------- 0 1.2 4.0 31 100
- 0.681099 0 4 ack 40 ------- 0 1.2 4.0 31 100
r 0.682754 0 4 ack 40 ------- 0 1.2 4.0 31 100
r 0.687864 1 0 ack 40 ------- 0 1.2 4.0 33 101
+ 0.687864 0 4 ack 40 ------- 0 1.2 4.0 33 101
- 0.687864 0 4 ack 40 ------- 0 1.2 4.0 33 101
r 0.689519 0 4 ack 40 ------- 0 1.2 4.0 33 101
+ 1.689519 4 0 tcp 592 ---A--- 0 4.0 1.2 34 102
- 1.689519 4 0 tcp 592 ---A--- 0 4.0 1.2 34 102
r 1.691616 4 0 tcp 592 ---A--- 0 4.0 1.2 34 102
+ 1.691616 0 1 tcp 592 ---A--- 0 4.0 1.2 34 102
- 1.691616 0 1 tcp 592 ---A--- 0 4.0 1.2 34 102
r 1.718382 0 1 tcp 592 ---A--- 0 4.0 1.2 34 102
+ 1.718382 1 0 ack 40 ------- 0 1.2 4.0 35 103
- 1.718382 1 0 ack 40 ------- 0 1.2 4.0 35 103
r 1.738839 1 0 ack 40 ------- 0 1.2 4.0 35 103
+ 1.738839 0 4 ack 40 ------- 0 1.2 4.0 35 103
- 1.738839 0 4 ack 40 ------- 0 1.2 4.0 35 103
r 1.740494 0 4 ack 40 ------- 0 1.2 4.0 35 103
+ 1.740494 4 0 tcp 592 ------- 0 4.0 1.2 36 104
- 1.740494 4 0 tcp 592 ------- 0 4.0 1.2 36 104
+ 1.740494 4 0 tcp 592 ------- 0 4.0 1.2 37 105
- 1.740967 4 0 tcp 592 ------- 0 4.0 1.2 37 105
r 1.74259 4 0 tcp 592 ------- 0 4.0 1.2 36 104
+ 1.74259 0 1 tcp 592 ------- 0 4.0 1.2 36 104
- 1.74259 0 1 tcp 592 ------- 0 4.0 1.2 36 104
r 1.743064 4 0 tcp 592 ------- 0 4.0 1.2 37 105
+ 1.743064 0 1 tcp 592 ------- 0 4.0 1.2 37 105
- 1.749356 0 1 tcp 592 ------- 0 4.0 1.2 37 105
r 1.769356 0 1 tcp 592 ------- 0 4.0 1.2 36 104
+ 1.769356 1 0 ack 40 ------- 0 1.2 4.0 37 106
- 1.769356 1 0 ack 40 ------- 0 1.2 4.0 37 106
r 1.776122 0 1 tcp 592 ------- 0 4.0 1.2 37 105
+ 1.776122 1 0 ack 40 ------- 0 1.2 4.0 37 107
- 1.776122 1 0 ack 40 ------- 0 1.2 4.0 37 107
r 1.789813 1 0 ack 40 ------- 0 1.2 4.0 37 106
+ 1.789813 0 4 ack 40 ------- 0 1.2 4.0 37 106
- 1.789813 0 4 ack 40 ------- 0 1.2 4.0 37 106
r 1.791468 0 4 ack 40 ------- 0 1.2 4.0 37 106
+ 1.791468 4 0 tcp 592 ------- 0 4.0 1.2 38 108
- 1.791468 4 0 tcp 592 ------- 0 4.0 1.2 38 108
+ 1.791468 4 0 tcp 592 ------- 0 4.0 1.2 39 109
+ 1.791468 4 0 tcp 592 ------- 0 4.0 1.2 40 110
- 1.791941 4 0 tcp 592 ------- 0 4.0 1.2 39 109
- 1.792415 4 0 tcp 592 ------- 0 4.0 1.2 40 110
r 1.793564 4 0 tcp 592 ------- 0 4.0 1.2 38 108
+ 1.793564 0 1 tcp 592 ------- 0 4.0 1.2 38 108
- 1.793564 0 1 tcp 592 ------- 0 4.0 1.2 38 108